15
Properties=species:S:1:pos:R:3 REF_energy=-0.0587865650516457
C 1.11612952 1.18355954 -0.29353988
C -0.19262992 1.56386948 0.38926986
C -1.36855948 0.78250968 -0.09377996
C -1.44227946 -0.55246979 -0.14919995
O -0.52002978 -1.48839939 0.22748992
C 0.83503973 -1.31052947 0.18333994
C 1.57572937 -0.22110993 -0.06288998
H 1.89465928 1.85586929 0.08949997
H 1.05651963 1.36504960 -1.37373948
H -0.10987996 1.46341956 1.47884941
H -0.38359985 2.62676883 0.19467993
H -2.24087930 1.35619950 -0.39738986
H -2.34668899 -1.06001961 -0.46630982
H 1.30345953 -2.27350926 0.36341989
H 2.65571880 -0.35760987 -0.09134997
12
Properties=species:S:1:pos:R:3 REF_energy=-0.03731199762375059
O 0.93021965 -0.05751998 0.00462000
C 2.15688920 -0.01569999 -0.00229000
N 2.90047908 -1.16615951 0.01150000
C 4.25630856 -1.22528958 0.00633000
C 4.95428801 -0.09371996 -0.01528999
C 4.27031851 1.22733951 -0.03432999
O 2.83255887 1.16248965 -0.02310999
H 2.35166907 -2.01654911 0.02730999
H 4.71409798 -2.20899916 0.02021999
H 6.03891802 -0.11298995 -0.02001999
H 4.57593822 1.81483936 0.83732969
H 4.56360817 1.78307927 -0.93079960
17
Properties=species:S:1:pos:R:3 REF_energy=-0.06596561653146571
C 2.35115910 -0.63405979 -1.49416947
C 2.40928912 0.15675995 -0.21220991
C 1.58074939 -0.13971995 0.80393970
C 3.45465875 1.19540954 -0.13039996
C 3.48261881 2.30517912 -1.15085959
C 3.07553887 2.60584903 0.25896990
O 4.02908850 3.34298873 1.03968954
H 3.33996892 -1.03743958 -1.73662937
H 2.02222919 0.00104000 -2.32268906
H 1.65743935 -1.47899950 -1.42714942
H 0.83546966 -0.92498964 0.72643977
H 1.63139939 0.40145984 1.74437940
H 4.41293812 0.81809974 0.21287991
H 2.70825911 2.35531902 -1.90768933
H 4.44783831 2.65836883 -1.49351943
H 2.02711916 2.83493900 0.42561984
H 4.91342831 2.94039869 1.02152967
16
Properties=species:S:1:pos:R:3 REF_energy=-0.06278033912533743
C 1.39431942 -0.12178995 -0.23846991
N 2.76185894 -0.17744994 0.25660989
C 3.51045871 1.02214956 -0.13004996
C 4.94758844 0.95783961 0.34246990
C 5.43322802 1.80221927 1.26749957
C 5.83466768 -0.00011000 -0.23941991
C 6.57566738 -0.81109971 -0.72560972
H 0.86531967 -1.03580964 0.04892998
H 1.36302948 -0.04509998 -1.33026946
H 0.85077971 0.72329974 0.19608992
H 3.23000860 -0.99166960 -0.14096995
H 3.01763892 1.90752935 0.29141989
H 3.50504875 1.14178967 -1.22133958
H 4.80241823 2.55154896 1.73419929
H 6.46849775 1.75715935 1.59187949
H 7.23446751 -1.53228939 -1.14985955
18
Properties=species:S:1:pos:R:3 REF_energy=-0.06749362077402132
C 1.18867958 -0.10324996 -0.11955995
C 2.66638899 0.07822997 -0.15347993
N 3.43867874 -0.38894984 -1.29775953
C 3.36153865 1.07541955 -1.07236958
C 2.58043909 1.89156926 -2.06867909
C 4.63312864 1.73601937 -0.57940978
O 5.70468807 1.36143947 -1.43796945
H 0.72435969 0.71119976 0.44510981
H 0.93967968 -1.04466963 0.38102984
H 0.73614973 -0.13021995 -1.11566961
H 3.10825896 -0.10922996 0.82035971
H 2.82886887 -0.66906977 -2.06923914
H 1.77380931 1.32547951 -2.54513907
H 3.23926878 2.25213933 -2.86604881
H 2.13585925 2.76132894 -1.57410944
H 4.88786793 1.42254937 0.43825984
H 4.54626846 2.82714891 -0.58246976
H 5.56510782 0.40636984 -1.59474933
12
Properties=species:S:1:pos:R:3 REF_energy=-0.03683528578941009
N 0.89375967 0.02283999 0.27359989
C 2.17881918 -0.00288000 0.28767991
N 2.94382906 1.10876954 0.15200995
C 4.30922842 1.22252953 0.14227995
C 5.02257824 2.34739923 0.00000000
C 6.42857742 2.34739923 0.00000000
N 7.57958698 2.34739923 0.00000000
H 0.53145981 -0.93034965 0.39208984
H 2.74376893 -0.94306970 0.41209984
H 2.40397906 1.96152925 0.03823999
H 4.81663847 0.26546991 0.26589990
H 4.52917814 3.30408883 -0.12398995
20
Properties=species:S:1:pos:R:3 REF_energy=-0.08048812794319105
C 1.07413960 -0.00792000 0.19175993
N 2.51726913 0.01430000 -0.00504000
C 3.15338874 1.03961957 0.85697967
C 4.26049852 -0.00268000 1.18856955
C 4.67874861 -0.04206999 2.65373921
C 5.47417784 0.03905999 0.25792992
C 3.17689872 -1.04784966 0.79254973
H 0.64209974 -0.87576962 -0.31863987
H 0.62355977 0.88654965 -0.25276992
H 0.77189970 -0.05027998 1.24553955
H 2.56236887 1.36272943 1.72452939
H 3.48879862 1.93462932 0.32261986
H 3.81121874 -0.07138997 3.32163882
H 5.26831770 0.84324968 2.91462898
H 5.28756762 -0.92836964 2.86179876
H 5.18158817 0.06517997 -0.79727972
H 6.10552788 -0.84385973 0.40411985
H 6.08300781 0.92797965 0.45435986
H 3.53226876 -1.90018928 0.20418993
H 2.59453893 -1.43714941 1.63829947
16
Properties=species:S:1:pos:R:3 REF_energy=-0.06233026538550179
N 1.04177964 0.03091999 0.14446995
C 2.49424911 -0.02802999 -0.03082999
C 2.90901875 -1.25451946 -0.87542969
C 3.38389874 -0.66882974 -2.16971922
C 3.43371868 0.66697979 -2.12270927
C 3.00070906 1.14985955 -0.83304971
C 3.08136892 2.42354918 -0.43131983
H 0.80704969 0.86628968 0.67551976
H 0.73486972 -0.76622975 0.69617975
H 2.97627878 -0.06916998 0.95276964
H 2.08447933 -1.95757926 -1.03837955
H 3.72630882 -1.80071926 -0.38917986
H 3.66381860 -1.26400959 -3.02718878
H 3.76107860 1.30587947 -2.93031883
H 2.75478888 2.71805882 0.56037980
H 3.47457886 3.19990897 -1.07996964
13
Properties=species:S:1:pos:R:3 REF_energy=-0.0433956818311938
N 1.29568946 -0.24705990 -0.82839966
C 2.52449918 -0.25012991 -0.27913988
N 3.03509903 -1.21497953 0.39032984
O 3.16598868 0.91248965 -0.49477983
C 4.49838829 0.99322963 0.02903999
C 5.05276775 2.31594896 -0.29177988
C 5.50793791 3.39774871 -0.55402982
H 0.97393960 0.68452972 -1.06568956
H 0.59764975 -0.80909967 -0.36263987
H 2.37298894 -1.99363923 0.39541987
H 5.12098837 0.21357991 -0.42477983
H 4.47676849 0.85983968 1.11678958
H 5.90861750 4.35588837 -0.78872967
20
Properties=species:S:1:pos:R:3 REF_energy=-0.08009831337878204
C 1.27078962 2.17590928 0.49706981
O 2.67169905 2.20955920 0.73354977
C 3.38593888 1.42771947 -0.23518991
C 4.90611792 1.47118938 0.06482998
C 5.19191790 0.93559968 1.47610950
C 5.66627741 0.63887972 -0.97249961
N 5.38508797 2.86395884 -0.02151999
H 0.78084970 2.80935884 1.24135959
H 0.89136964 1.15487957 0.60398978
H 1.03803957 2.56252885 -0.49932981
H 3.18350887 1.82677925 -1.23728955
H 3.02467895 0.39225987 -0.19513993
H 4.71071815 1.54651940 2.24957919
H 6.26676750 0.92246968 1.68943942
H 4.82127810 -0.09016997 1.58637941
H 5.49444818 1.01355958 -1.98940933
H 5.34427834 -0.40833986 -0.94767964
H 6.74680758 0.65722978 -0.78958970
H 4.75497818 3.43683887 0.54630977
H 6.30378771 2.94227886 0.41149983
12
Properties=species:S:1:pos:R:3 REF_energy=-0.03662291775649518
O 1.67099941 -0.30097988 -1.10014951
C 2.59554911 -0.13763995 -0.03174999
C 2.95172906 1.30138958 0.03957998
C 2.23584938 2.43188906 -0.30731988
C 2.99663877 3.60319853 -0.03892999
N 4.20649862 3.42903876 0.48509982
S 4.46751833 1.80075932 0.66431975
H 1.48950946 -1.25326955 -1.16771960
H 3.46887851 -0.76636970 -0.23165990
H 2.11826921 -0.46276984 0.89793968
H 1.23989952 2.41299915 -0.73026967
H 2.67769909 4.62175846 -0.22105992
12
Properties=species:S:1:pos:R:3 REF_energy=-0.03894148396507413
C 0.82028967 1.81575930 -0.02721999
N 2.07634926 2.11081934 -0.00961000
N 2.91445899 1.05251956 0.09998996
C 4.28179836 1.17949951 0.09827997
C 4.99882793 2.30625892 0.00000000
C 6.40482759 2.30625892 0.00000000
N 7.55583715 2.30625892 0.00000000
H 0.07487997 2.62228894 -0.11326995
H 0.43175983 0.78544968 0.03784999
H 2.55794907 0.09967996 0.18136995
H 4.77958822 0.21533993 0.18719992
H 4.49498844 3.26183867 -0.08897997
11
Properties=species:S:1:pos:R:3 REF_energy=-0.034331167676107555
C 0.99999964 0.00000000 0.00000000
C 2.44399905 0.00000000 0.00000000
C 3.63415861 0.00000000 0.00000000
C 5.28688812 0.00000000 0.00000000
C 6.51526737 0.00000000 -0.00001000
C 7.98425722 0.00000000 0.00000000
C 9.20476723 0.00000000 0.00000000
H 0.40847984 0.94297963 0.08566996
H 0.49471983 -0.41806984 0.89147967
H 0.37749988 -0.43498981 -0.81259972
H 10.23936653 0.00000000 0.00000000
16
Properties=species:S:1:pos:R:3 REF_energy=-0.063541922312212
N 0.91146964 -0.06198998 0.22086993
C 2.37014914 -0.00548000 0.07977997
C 2.80060911 1.32452953 -0.60535979
C 3.89350843 1.19618964 -1.63142931
C 4.32124853 0.01120000 -2.08574915
C 3.75229859 -1.22489965 -1.60985947
C 2.85161901 -1.24823952 -0.61655974
H 0.58511978 0.78030968 0.69080973
H 0.66277975 -0.84211969 0.82523966
H 2.79584908 -0.01420000 1.09211957
H 3.12796879 2.02312922 0.17325993
H 1.94446921 1.80057931 -1.09766960
H 4.32116842 2.11254930 -2.02756929
H 5.09561777 -0.04842998 -2.84326887
H 4.08183861 -2.14497924 -2.07671928
H 2.46928906 -2.20413899 -0.27389991
16
Properties=species:S:1:pos:R:3 REF_energy=-0.06538781844883612
C 1.03162956 -0.13805994 0.17865993
C 2.51819921 0.04356998 -0.12814994
C 2.85691905 -0.55865979 -1.50201952
O 4.26599884 -0.59627980 -1.71453929
C 2.87057900 1.51574945 -0.07617997
C 3.77591848 2.03954911 0.76072973
H 0.77768970 0.28133988 1.15848958
H 0.76639968 -1.20071959 0.19308992
H 0.40303987 0.35475987 -0.57199979
H 3.09888887 -0.49184981 0.63468975
H 2.39870906 0.00834000 -2.32012916
H 2.49540901 -1.59039938 -1.56625938
H 4.60070848 0.30740988 -1.57534933
H 2.34598899 2.17787910 -0.76307970
H 4.32375813 1.42385948 1.46845949
H 3.98573852 3.10508895 0.75878972
15
Properties=species:S:1:pos:R:3 REF_energy=-0.05626148605569936
C 1.20290959 0.03932999 1.14738965
C 2.04050922 0.33190989 -0.07211997
O 1.76326931 -0.21420993 -1.14883959
C 3.22486877 1.32520950 0.09007996
C 3.14108896 2.66112900 -0.65933979
C 3.48928857 3.28770876 0.68518978
O 3.27773857 2.03064919 1.37060952
H 1.84008932 -0.35264987 1.94408917
H 0.44517985 -0.71170974 0.90449965
H 0.70082974 0.95312959 1.47492945
H 4.18188858 0.81058973 -0.07238998
H 2.14701915 2.92175889 -1.03395963
H 3.88421869 2.80234885 -1.44792950
H 4.52328825 3.62831855 0.79304969
H 2.80087900 4.06247854 1.03253961
11
Properties=species:S:1:pos:R:3 REF_energy=-0.031906934857907965
N 1.03741956 -0.03175999 -0.12130996
C 2.36563921 0.09777997 -0.06523997
C 3.19877863 1.18929958 -0.02355999
C 4.51860857 0.67513973 0.02865999
C 4.39400816 -0.69476974 0.01805999
O 3.08385897 -1.05115962 -0.03662999
H 0.43374982 0.74478972 0.12122995
H 0.64398974 -0.94752961 0.06806998
H 2.89526892 2.22567916 -0.03536998
H 5.44352818 1.23248959 0.06658997
H 5.09923840 -1.51329947 0.04194998
17
Properties=species:S:1:pos:R:3 REF_energy=-0.06340171634345282
C 0.41535985 -0.61915982 -0.00544000
C 1.92644930 -0.56990975 0.13555996
C 2.47763920 0.82097971 -0.16331995
O 3.90829849 0.82063967 -0.04411998
C 4.39494848 1.03373957 1.20909953
C 5.89310789 1.02248967 1.18316960
O 3.72490859 1.21989954 2.21458912
H 0.04774998 -1.62593937 0.21303992
H 0.10803996 -0.35776988 -1.02234960
H -0.06479998 0.07632997 0.68924969
H 2.38889909 -1.29891944 -0.54030979
H 2.21131921 -0.87690967 1.14893961
H 2.02865911 1.58555949 0.48212981
H 2.24528933 1.10082960 -1.19720948
H 6.25142765 0.09398997 0.73028976
H 6.27344751 1.07259965 2.20793915
H 6.25982809 1.88863933 0.62660974
13
Properties=species:S:1:pos:R:3 REF_energy=-0.04297017411267712
O 1.25405955 0.00404000 1.00878966
C 2.52337909 -0.00660000 0.32901987
C 2.56523895 0.69291973 -1.00194955
O 3.86877847 1.12775958 -1.53146946
C 4.49823809 -0.06204998 -1.89199924
C 3.82435870 -1.16570961 -1.57208931
C 2.55465889 -0.83134967 -0.93173969
H 0.95376962 0.91529965 1.17368960
H 3.41640878 0.02672999 0.94526964
H 1.67638934 1.20059955 -1.35868955
H 5.45602798 0.05065998 -2.37043929
H 4.15238857 -2.17747927 -1.76295924
H 1.66592932 -1.35197949 -1.25591958
15
Properties=species:S:1:pos:R:3 REF_energy=-0.05693194450819661
C 0.92171967 -0.01387999 0.92587966
C 0.27588987 -1.04307961 -0.03038999
C 0.75134969 -0.03564999 -1.10344958
N 0.32742986 0.99811965 -0.05668998
C -1.13739955 0.76837975 0.06612998
C -1.20549965 -0.75412971 0.09363996
H 2.01832914 -0.01241000 0.97497958
H 0.53156978 0.03415999 1.94874930
H 0.64487982 -2.06617928 -0.04989998
H 0.19555993 -0.00923000 -2.04750919
H 1.82429922 -0.03715999 -1.33491957
H -1.53265941 1.21512961 0.98461962
H -1.67789948 1.19034946 -0.78787971
H -1.77518928 -1.15850961 -0.74891967
H -1.62164938 -1.13390958 1.03206956
17
Properties=species:S:1:pos:R:3 REF_energy=-0.0686709606077367
C 0.69845974 1.63301945 -0.56843984
C 2.16615915 1.88081932 -0.85716969
O 2.93098879 1.24369955 0.16102993
C 4.33469820 1.40479946 -0.04168998
O 4.78910828 2.75983882 -0.01848999
C 4.71592855 3.45151877 1.15560961
C 4.20345831 3.07040882 2.33062911
H 0.06597998 2.12140918 -1.31490958
H 0.43238983 2.01089931 0.42356986
H 0.48230982 0.55982977 -0.56930977
H 2.36080909 2.95860887 -0.85850966
H 2.42947912 1.46650946 -1.83705926
H 4.60617828 0.97698963 -1.01323962
H 4.86809826 0.81886971 0.71652973
H 5.14664793 4.43755817 1.01595962
H 3.74735880 2.09962916 2.48667908
H 4.21156836 3.75154877 3.17460895
19
Properties=species:S:1:pos:R:3 REF_energy=-0.07369193405756413
C 0.70946974 -0.11421996 -0.10668996
C 2.20128918 -0.32218987 -0.36475986
C 2.44319916 -0.77356976 -1.80462933
C 2.99906874 0.91954970 -0.01248999
C 2.80158877 2.16899920 -0.81877971
C 3.56401849 1.04510963 1.38790953
O 4.38018847 0.64596975 0.27862990
H 0.53355980 0.21031992 0.92473966
H 0.15515995 -1.04505968 -0.26722991
H 0.28579989 0.64598972 -0.77174973
H 2.52998900 -1.14275956 0.28710988
H 2.05969930 -0.04625998 -2.52808905
H 1.94433928 -1.72920930 -1.99830925
H 3.51304865 -0.90612966 -1.99847925
H 3.45153856 2.97907901 -0.47069982
H 1.76914930 2.52128911 -0.74126971
H 3.03277874 1.99792933 -1.87392926
H 3.31846881 0.29048991 2.12499905
H 3.73088861 2.03176928 1.80214942
15
Properties=species:S:1:pos:R:3 REF_energy=-0.05814352193037986
C 1.20342958 -0.23622991 -0.63457978
C 2.47462916 -0.03357999 -0.26823989
C 3.11510897 1.25523949 -0.16395994
C 4.41903830 1.40353954 0.14597994
C 4.79234791 2.85515904 0.19057994
C 3.49188876 3.51782870 -0.13626996
C 2.54972887 2.58488894 -0.33278987
H 0.80216974 -1.24330950 -0.68745977
H 0.53336978 0.57651979 -0.89181966
H 3.08660889 -0.90127963 -0.02889999
H 5.11886835 0.60398978 0.33922985
H 5.55657816 3.09018898 -0.55571979
H 5.14488792 3.14213896 1.18547952
H 3.34349871 4.58487797 -0.19890992
H 1.51699936 2.77853894 -0.57847977
17
Properties=species:S:1:pos:R:3 REF_energy=-0.06519313510934333
C 0.89489967 -0.00456000 -0.09694996
C 2.41284895 0.14644994 -0.03793998
O 2.97301888 -0.54259980 -1.15864956
C 2.97059870 1.55485940 -0.04803998
C 2.22813892 2.67182899 -0.15047994
C 4.47055864 1.64992940 0.11202995
O 5.11825800 1.11241949 -1.03117955
H 0.40836987 0.47326982 0.75889969
H 0.62277979 -1.06598961 -0.09924996
H 0.48573983 0.41853985 -1.02138960
H 2.76790881 -0.36278987 0.86576968
H 2.59273911 -0.12557995 -1.95421934
H 1.14777958 2.65368891 -0.25102991
H 2.68912911 3.65645862 -0.14367995
H 4.80072832 1.09786963 0.99809963
H 4.80636787 2.68568897 0.22708991
H 4.70165825 0.24175991 -1.19361961
17
Properties=species:S:1:pos:R:3 REF_energy=-0.06489234346766914
C 1.09462953 -0.59264982 0.00037000
C 2.39210916 0.12904996 0.19145992
C 2.62155914 1.45899940 0.21200992
C 1.51389933 2.47959900 0.08132997
N 3.91672850 1.93989933 0.37422985
C 4.38885832 3.21552873 0.39993984
N 5.61834764 3.56434870 0.55216980
H 1.23806953 -1.41055954 -0.71306974
H 0.29438990 0.03515999 -0.39462984
H 0.76628971 -1.02568960 0.94979966
H 3.23788881 -0.54629976 0.31545988
H 0.51300979 2.04389930 0.06137998
H 1.63929939 3.05810881 -0.83997965
H 1.53043950 3.16798878 0.93351960
H 4.61538792 1.21439958 0.47454983
H 3.62376857 3.99821854 0.27430987
H 6.21101761 2.73885894 0.65581971
20
Properties=species:S:1:pos:R:3 REF_energy=-0.07801576440561697
C 2.61219907 -1.45573938 -0.35166985
C 2.01075912 -0.09486996 -0.01189000
N 1.06796956 -0.20022991 1.09866965
C 3.06350899 0.95407963 0.33051988
C 4.06241846 0.59369975 1.40654945
C 3.56878877 1.83158934 -0.80018967
C 2.65025902 2.41161919 0.23494992
H 3.35104871 -1.36258948 -1.15505958
H 1.83516932 -2.15124917 -0.68758976
H 3.11336875 -1.91128933 0.50940984
H 1.44221950 0.24288991 -0.88751966
H 1.54131949 -0.58574980 1.91282928
H 0.34041989 -0.87054968 0.85752970
H 4.72283840 1.43566954 1.64206946
H 4.69892836 -0.23520991 1.08239961
H 3.55953860 0.30597988 2.33436918
H 3.17245865 1.68146944 -1.79834938
H 4.60578823 2.14870930 -0.79039973
H 3.06128883 3.11605883 0.94908965
H 1.62834942 2.63644910 -0.05213998
18
Properties=species:S:1:pos:R:3 REF_energy=-0.07327018226225512
C 1.49211943 -0.17944993 0.89706969
N 2.89759874 0.18455993 0.77579969
C 3.09503865 1.58620942 0.34877986
C 2.53643918 2.60260892 1.34721947
C 4.60893869 1.86089933 0.12878996
N 5.26617813 0.81940967 -0.67428976
H 1.41331947 -1.25693953 1.07692969
H 0.93182963 0.04763998 -0.01625999
H 1.01793969 0.31933987 1.74796927
H 3.31024885 -0.39406985 0.04043999
H 2.59197903 1.72978938 -0.61738974
H 2.94734907 2.44375920 2.34997916
H 1.44556952 2.54629898 1.41128945
H 2.78813910 3.62353873 1.03935957
H 5.12553835 1.92700934 1.09508955
H 4.73324871 2.82558918 -0.37543988
H 5.30567789 -0.02532999 -0.10183996
H 6.23869753 1.08818960 -0.81831968
11
Properties=species:S:1:pos:R:3 REF_energy=-0.03075368891277086
N 1.03564966 -0.00040000 -0.25897992
C 2.29779911 -0.05446998 -0.01332999
C 3.14597893 -1.24766958 0.13940994
C 4.37157869 -0.76686972 0.38363984
N 4.42665863 0.60042977 0.40896985
C 3.19964862 1.15830958 0.17553994
O 2.84576893 2.31279922 0.11880995
H 0.76074976 0.99349964 -0.30200988
H 2.80353880 -2.26282907 0.06177998
H 5.26796818 -1.34987950 0.55229974
H 5.25478792 1.15537953 0.57644975
17
Properties=species:S:1:pos:R:3 REF_energy=-0.06651844801023654
C 1.85522926 -0.25387990 0.25584990
C 0.88285965 -1.39055943 0.61545980
C -0.08768997 -0.85613966 -0.46471983
C -1.45257950 -0.54170978 -0.00130000
C -1.51055944 0.71987969 0.44036984
C -0.20514992 1.45223951 0.33327988
C 0.69547969 0.48551983 -0.44739982
H 2.64839911 -0.56585979 -0.43339983
H 2.31128931 0.26502991 1.10294950
H 1.26714957 -2.39954925 0.43888983
H 0.51471984 -1.33547950 1.64702940
H -0.04543998 -1.39139950 -1.41901946
H -2.27756929 -1.24021947 -0.01425999
H -2.40479922 1.18033957 0.83974969
H 0.19439994 1.67503941 1.32771957
H -0.33714986 2.38991928 -0.21569993
H 0.95250964 0.87085968 -1.44137955
16
Properties=species:S:1:pos:R:3 REF_energy=-0.0636853942111022
N 0.92929965 0.08907997 0.14916995
C 2.38368917 0.08703996 -0.06293998
C 3.07367897 1.04789960 0.91460967
O 3.98271847 -0.00626000 1.34246957
C 3.06979871 -1.00918961 0.79047972
C 3.67307878 -2.12031913 0.00510000
C 4.98232841 -2.17682934 -0.26371992
H 0.45281982 -0.68640971 -0.31082988
H 0.47047985 0.93486965 -0.18843994
H 2.70755911 0.17598994 -1.10413957
H 2.48698902 1.42103946 1.76048934
H 3.61152864 1.87631929 0.44555983
H 2.45598912 -1.41768956 1.60566938
H 3.00653887 -2.90369892 -0.34154987
H 5.67220783 -1.41105950 0.08090997
H 5.39904785 -3.00247884 -0.83208972
15
Properties=species:S:1:pos:R:3 REF_energy=-0.04786063620427128
C 3.94972873 -1.21012950 -0.41913986
S 2.77396894 0.00653000 0.10786996
O 1.80260932 0.18522993 -0.95304960
O 2.36782908 -0.31498986 1.46072936
C 3.77097869 1.52174938 0.23944990
C 3.84557867 2.35450912 -1.01091957
C 2.96613884 2.78913903 0.13188995
H 4.74587822 -1.27650952 0.32454988
H 4.35069799 -0.91535968 -1.39040947
H 3.43438864 -2.16903925 -0.50234979
H 4.60954809 1.50118947 0.91915965
H 3.35635877 2.01471925 -1.91737938
H 4.75216818 2.92091870 -1.19156957
H 3.28151894 3.63983870 0.72459978
H 1.89019930 2.72351909 0.00015000
13
Properties=species:S:1:pos:R:3 REF_energy=-0.041188287365946374
N 1.15732956 0.10438997 0.47267982
C 2.33739924 -0.14015995 0.04579998
N 2.91669893 -1.35563946 -0.16996995
C 4.10309839 -1.28442943 -1.01556957
C 4.42565823 0.18313994 -1.04323959
O 3.53226876 1.03098965 -1.77336931
C 3.29289865 0.90786964 -0.36288986
H 0.99145961 1.11551952 0.49597982
H 2.27318931 -2.12738919 -0.29541987
H 4.91702843 -1.86364925 -0.57072979
H 3.88964844 -1.66130936 -2.02056909
H 5.44979811 0.47010982 -0.88055962
H 3.51383877 1.73077941 0.29950988
14
Properties=species:S:1:pos:R:3 REF_energy=-0.0497838395835184
N 1.13777959 -0.07012997 0.20653991
C 2.51509905 0.01802999 0.08732996
C 3.22664881 -1.22852945 -0.17035994
C 2.79856896 -2.44581914 0.19109993
C 3.13226891 1.21081948 0.16439994
C 4.58859825 1.45123947 0.09422997
O 5.04213810 2.59018898 0.09661996
H 0.64809978 0.80888969 0.06003997
H 0.73939973 -0.82252967 -0.35089988
H 4.17596817 -1.17244947 -0.69891977
H 1.87593937 -2.59332895 0.74434972
H 3.38476872 -3.32892895 -0.03789999
H 2.56004906 2.11844921 0.33079988
H 5.24416780 0.56996977 0.04928998
15
Properties=species:S:1:pos:R:3 REF_energy=-0.051410476202834676
C 1.10141969 -0.03756998 -0.09533996
C 2.57180882 0.17092994 -0.10524996
N 3.16399884 1.27233946 -0.46139982
N 4.53672838 1.14851952 -0.38546985
C 4.81046820 -0.14130995 0.26656991
C 4.58291817 -1.43363953 -0.46267983
C 3.49362874 -0.85570967 0.39661986
H 0.86959970 -1.10352969 -0.16034994
H 0.64688975 0.48344982 -0.94174969
H 0.68909979 0.36359987 0.83406967
H 4.94010830 1.95383930 0.09720997
H 5.48767805 -0.13478994 1.11214948
H 5.10038805 -2.31476927 -0.10336996
H 4.46645832 -1.39695954 -1.53998947
H 3.26610875 -1.32008958 1.34633946
15
Properties=species:S:1:pos:R:3 REF_energy=-0.05466567026355951
C 0.95570964 -0.26468992 -0.07876997
C 2.42754912 -0.02903999 -0.20973992
C 3.09442878 1.10961950 0.05907998
C 2.53967905 2.40914917 0.56022978
O 2.79796886 3.44662881 -0.37889987
C 4.56912804 1.08843958 -0.14755994
O 5.26360798 2.08428931 0.02681999
H 0.77933973 -1.12198961 0.57905978
H 0.53106982 -0.49714980 -1.06064963
H 0.40876988 0.58589977 0.33216989
H 2.97348905 -0.89931965 -0.57263982
H 2.99361897 2.68225908 1.51935947
H 1.45965946 2.37717891 0.71512973
H 3.77257872 3.53350878 -0.41581985
H 5.00451803 0.13075995 -0.47902983
18
Properties=species:S:1:pos:R:3 REF_energy=-0.07410667036204943
C 1.17706954 -0.53821981 0.16297995
C 2.65175915 -0.79180968 -0.10698996
N 3.38408875 0.47374982 -0.08644997
C 4.81394815 0.25147992 -0.35496986
C 5.60108805 1.57600951 -0.36239988
N 5.33976793 2.39331913 0.83078969
H 0.62341976 -1.48294950 0.14864995
H 0.74246973 0.11805996 -0.59890974
H 1.02579963 -0.07411998 1.14327955
H 2.75440884 -1.27444947 -1.08582962
H 3.04462886 -1.47662938 0.65357971
H 3.31308866 0.88312966 0.84699965
H 4.94669819 -0.23739991 -1.32648957
H 5.23481798 -0.40702984 0.41555986
H 5.33200788 2.15910935 -1.25053942
H 6.67288780 1.35950947 -0.42246985
H 4.36506844 2.69369912 0.78600973
H 5.88982821 3.24926901 0.76448971
15
Properties=species:S:1:pos:R:3 REF_energy=-0.056893959758757995
N 1.02231956 0.00856000 0.14494994
C 2.46003914 0.02516999 -0.08036996
C 3.10902882 1.06601954 0.85145968
C 4.14769840 -0.01595999 1.23228943
O 5.40513802 0.01829999 0.52518982
C 3.12119889 -1.07680964 0.76953971
H 0.54738981 -0.78788972 -0.27991989
H 0.54052979 0.83724970 -0.20277993
H 2.78150916 0.06732997 -1.12524951
H 2.50656915 1.39868951 1.70585942
H 3.51336861 1.94852924 0.34666988
H 4.34836864 -0.05576998 2.30863905
H 5.18009806 0.05090998 -0.41957983
H 3.53496861 -1.91361928 0.19888993
H 2.52267909 -1.48052943 1.59564936
17
Properties=species:S:1:pos:R:3 REF_energy=-0.06822210945843543
C 2.46997905 -0.42824984 -1.57971931
C 2.50708890 0.13875994 -0.16950995
C 3.46903849 1.31920958 -0.01618999
O 3.49523854 1.70155942 1.37707949
C 3.14175892 3.09158897 1.48733950
C 2.87843895 3.55157876 0.10561996
C 3.06103897 2.54819894 -0.74946970
H 1.81850922 -1.30710948 -1.61420941
H 3.46909857 -0.73485970 -1.90507936
H 2.08208919 0.30216986 -2.29600906
H 2.80387902 -0.65468973 0.52908981
H 1.49464941 0.43289983 0.13591996
H 4.48529816 1.02366960 -0.29837990
H 3.97535849 3.63206863 1.94484925
H 2.25586915 3.18016863 2.12248921
H 2.58772898 4.55737829 -0.15558995
H 2.94891906 2.61371922 -1.82096934
19
Properties=species:S:1:pos:R:3 REF_energy=-0.07262949013199416
C 0.91566962 0.02003999 -0.14609994
C 2.41429925 0.02190999 0.03895999
N 2.85623908 -0.09643997 1.43860936
C 3.25930858 -0.64370972 -1.02308965
C 3.21780872 0.86087972 -0.93625963
C 4.41782856 1.64536941 -0.52266979
N 5.22505808 1.88661933 -1.71369934
H 0.63129973 0.09660996 -1.20179951
H 0.46557981 0.86583966 0.38481984
H 0.48290983 -0.90570962 0.24875991
H 3.83643842 -0.36588985 1.50052953
H 2.34315920 -0.84134972 1.91080928
H 2.76169896 -1.10820961 -1.86782932
H 4.17031860 -1.15195954 -0.73036975
H 2.65812898 1.39358950 -1.70057940
H 5.02520847 1.12139964 0.22213992
H 4.10427856 2.60234904 -0.09399997
H 5.55211782 0.99295962 -2.07692933
H 6.05822802 2.40801907 -1.44624949
12
Properties=species:S:1:pos:R:3 REF_energy=-0.04083512202512951
C 0.48547983 1.46284950 0.33425987
C 1.01327968 0.29758990 -0.43529984
C 0.98393965 -1.08504951 0.15327995
N -0.46257982 -1.38784945 0.33014989
C -1.07175958 -0.34296989 -0.14498995
N -0.38062984 0.75068974 -0.61149979
H 0.73779970 2.46034908 0.00316000
H 0.20668992 1.34930944 1.37354946
H 1.62682939 0.42856985 -1.31224954
H 1.49697948 -1.12054968 1.11902964
H 1.43111944 -1.81569934 -0.52750981
H -2.16694927 -0.26281989 -0.22919992
15
Properties=species:S:1:pos:R:3 REF_energy=-0.05472103880627199
O 0.91047966 0.00370000 0.09400997
C 2.34602928 0.00929000 0.01777999
C 3.06346869 1.05358958 0.90143967
C 4.12776852 -0.02012999 1.23387957
C 3.07324886 -1.08142960 0.83557969
C 5.32149839 0.00818000 0.40740985
C 6.30580759 0.03152999 -0.27992991
H 0.63393980 -0.75879973 -0.44291985
H 2.67403889 0.04769998 -1.02894962
H 2.47863913 1.37608957 1.77158928
H 3.41781855 1.94592929 0.37623987
H 4.38027859 -0.05162998 2.30078936
H 3.43515873 -1.93641925 0.25624990
H 2.49148917 -1.46213937 1.68399942
H 7.17882729 0.05361998 -0.89075971
16
Properties=species:S:1:pos:R:3 REF_energy=-0.06455082551837865
N 0.41429985 -0.14035994 -0.02273999
C 1.86959922 -0.01397999 0.03437999
C 2.40637898 1.39172959 -0.12569995
C 1.64447939 2.50024915 -0.18186994
O 3.78486848 1.41268945 -0.30173990
C 4.55100822 2.38696909 0.28805989
C 5.86954784 2.46016908 0.08997996
H 0.16875994 -1.11994958 0.10674996
H 0.11056996 0.09987996 -0.96524966
H 2.29958916 -0.64898974 -0.74934971
H 2.21576929 -0.40825984 0.99711967
H 0.56776983 2.45095921 -0.05739998
H 2.07060933 3.48058867 -0.35775986
H 4.01963854 3.06927872 0.93667966
H 6.37539768 1.74906933 -0.55215979
H 6.46216774 3.23011875 0.57036978
15
Properties=species:S:1:pos:R:3 REF_energy=-0.05809281166339342
O 1.11697948 -0.33233988 0.10314996
C 2.36429906 0.23760991 -0.29632989
C 2.79290891 -0.39983985 -1.62646937
C 4.15489864 -0.00917000 -2.02807927
C 5.26321793 0.31282988 -2.36010909
C 2.15275908 1.72392929 -0.39020985
C 2.81241894 2.63236904 0.34104985
H 0.84042972 0.14231995 0.90624970
H 3.09655881 -0.00591000 0.48337984
H 2.07732916 -0.14181995 -2.41749907
H 2.74147892 -1.49199939 -1.53183937
H 6.24455786 0.60358977 -2.65718889
H 1.40994954 2.06370926 -1.10932958
H 3.56849861 2.34479904 1.06538963
H 2.61421895 3.69296861 0.21827991
17
Properties=species:S:1:pos:R:3 REF_energy=-0.06328491057333907
C 1.36896956 -0.04850998 -0.51151979
C 2.82030892 -0.19655994 -0.08871996
N 3.50610852 1.06733966 -0.19808993
C 4.82366848 1.31635940 0.07386997
N 5.66708803 0.44443983 0.51455981
C 5.32218790 2.74662900 -0.17722994
O 4.26166868 3.67631865 0.02021999
H 0.84408969 -1.00345957 -0.41456985
H 1.29615951 0.27841988 -1.55386937
H 0.85274965 0.69146973 0.10857996
H 3.30913877 -0.94429964 -0.72366971
H 2.86123896 -0.55213976 0.94708961
H 2.98157907 1.85942936 -0.56860977
H 5.19925785 -0.45559984 0.62745976
H 5.66409779 2.82107902 -1.21376956
H 6.14993763 2.98999882 0.49474981
H 4.05353832 3.63173866 0.97068965
15
Properties=species:S:1:pos:R:3 REF_energy=-0.04724003133578902
C 2.34946895 -0.50991982 -1.40726948
C 2.54308915 0.01794999 0.00472000
C 3.00246906 1.43409944 -0.00134000
N 2.24119925 2.50849891 0.00076000
C 3.10178876 3.57494855 -0.00884000
C 4.40643835 3.14602876 -0.01643999
N 4.33125877 1.78140938 -0.01080000
H 2.00095916 -1.54718947 -1.38039947
H 3.28667879 -0.48072982 -1.97359920
H 1.60882938 0.08388997 -1.95392931
H 3.26553869 -0.61112976 0.53748983
H 1.59586942 -0.05078998 0.55198979
H 2.73487902 4.59310818 -0.00982000
H 5.34836817 3.67473841 -0.02499999
H 5.10924816 1.13649964 -0.01507999
15
Properties=species:S:1:pos:R:3 REF_energy=-0.05771491890493663
C 2.68349910 -0.76743972 1.24924958
O 2.37149906 -0.08726996 0.04031998
C 2.84125876 1.25555944 0.05519998
O 4.25827837 1.34651947 0.01832999
C 4.77960825 0.85789967 -1.21386957
C 6.22325754 1.12111950 -1.26138949
C 7.40440702 1.33468950 -1.30828953
H 2.26242900 -1.77496934 1.19251955
H 2.23933935 -0.25413990 2.10757923
H 3.76654840 -0.85262966 1.37830949
H 2.48203897 1.76704931 0.95536959
H 2.41147923 1.78228939 -0.80435973
H 4.28887844 1.36027944 -2.05511928
H 4.59753799 -0.21934992 -1.29119945
H 8.45192719 1.52495944 -1.34758949
12
Properties=species:S:1:pos:R:3 REF_energy=-0.04221277772697252
C 0.95924968 0.00320000 0.03811999
C 2.29150915 0.08897997 0.09593996
O 2.91684890 1.29702950 0.32185987
C 4.30412817 1.19170952 -0.01435999
O 4.94449806 0.03338999 0.53813982
N 4.40050840 -1.18228960 0.04982998
C 3.11659884 -1.12933958 -0.10674996
H 0.35008988 0.88989967 0.18098992
H 0.44348982 -0.93321967 -0.14107995
H 4.80968809 2.07292914 0.39081988
H 4.43211842 1.20682955 -1.10468960
H 2.58380914 -2.03827929 -0.42963985
14
Properties=species:S:1:pos:R:3 REF_energy=-0.05359477106811583
C 0.42426986 1.41812944 0.26510993
C 1.37103951 0.32922986 -0.20712991
N 0.92194968 -0.92476964 0.38563985
N -0.34482989 -1.35816944 0.18290994
C -1.25188959 -0.44393983 0.01235000
C -1.01146960 1.04289961 -0.05660998
H 0.67817974 2.37833929 -0.19830993
H 0.53054982 1.55239940 1.34953952
H 2.39114904 0.55111980 0.11991996
H 1.37538946 0.25502989 -1.30057955
H 1.58961940 -1.67716932 0.20418993
H -2.29148912 -0.77726972 -0.14098994
H -1.27020955 1.36047947 -1.07329965
H -1.70746934 1.54341936 0.62453973
17
Properties=species:S:1:pos:R:3 REF_energy=-0.06927843048688476
C 2.35845900 -0.49631983 -1.44393945
C 2.47560906 0.05657998 -0.03225999
C 3.25915885 1.36026955 -0.03910999
C 2.55259895 2.62299919 -0.58691978
C 3.19925880 3.33253860 0.61420977
N 3.24779892 2.01975918 1.29483950
H 1.81285930 -1.44490945 -1.43726945
H 3.34744883 -0.67279977 -1.87949920
H 1.82389927 0.20045991 -2.09770918