16
Properties=species:S:1:pos:R:3 REF_energy=-0.05561865411748124
C 0.71070975 -1.01395965 -0.30415988
C 2.03917933 -0.32350987 -0.01523999
C 3.13183880 -0.85026968 -0.93752968
O 1.91248930 1.08806956 -0.26791990
C 1.40874946 1.82541931 0.74571973
N 1.33330953 3.12180877 0.37355986
O 1.06000960 1.41927946 1.84161925
H -0.07686997 -0.63720971 0.35654989
H 0.78836972 -2.09642911 -0.16424994
H 0.38112983 -0.81452966 -1.32983947
H 2.34533906 -0.50304979 1.02275956
H 2.88760877 -0.65759975 -1.98813915
H 3.28218889 -1.92578924 -0.80306971
H 4.07892847 -0.33799988 -0.73623973
H 1.62240934 3.39593863 -0.55182981
H 0.96278960 3.79728842 1.02386963
18
Properties=species:S:1:pos:R:3 REF_energy=-0.06987354666964474
C 0.96386963 0.01362999 -0.01282000
C 2.49494910 0.00116000 -0.03162999
N 2.96525908 0.13696995 -1.40235949
C 3.07024884 -1.27199948 0.62126976
C 3.36299872 -0.89570969 2.07617927
C 3.52565861 0.58731979 2.00256920
C 3.05459881 1.07809961 0.84987968
H 0.57189977 -0.10314996 1.00430965
H 0.55531979 -0.80473971 -0.61680979
H 0.56539977 0.95444959 -0.41095984
H 3.98246861 0.18746993 -1.40647948
H 2.62926912 1.01359963 -1.79444933
H 4.01420879 -1.57032931 0.14390995
H 2.39755893 -2.13389921 0.55003983
H 4.27048874 -1.38858950 2.43539906
H 2.52950907 -1.15529954 2.73744893
H 3.93685842 1.18418956 2.80419898
H 3.03061891 2.13092923 0.60478979
15
Properties=species:S:1:pos:R:3 REF_energy=-0.05474925097702488
C 0.92244965 -0.13723995 0.05504998
N 2.36059904 -0.12337995 0.27594990
N 2.98405886 -1.34627950 0.63320976
C 3.09630871 1.00581956 -0.10102996
O 2.57777905 2.01569915 -0.57595980
C 4.57280827 0.93208969 0.10945996
C 5.37410784 1.92952919 -0.28844988
H 0.50515980 0.86664969 0.17958993
H 0.44201985 -0.81281966 0.76935971
H 0.72992975 -0.47818983 -0.96679968
H 2.80475879 -2.02367926 -0.11132996
H 2.52607918 -1.70651937 1.47291934
H 4.98393822 0.06073998 0.60145974
H 4.97830820 2.81474900 -0.77824974
H 6.44527769 1.87757921 -0.12890996
20
Properties=species:S:1:pos:R:3 REF_energy=-0.08194030932695173
C 0.89635968 -0.17310993 -0.07719997
C 2.42834902 -0.18434992 0.04290998
C 2.84885907 -1.00897956 1.26870942
N 2.98221898 -0.85465968 -1.14954960
C 3.00455880 1.25885952 0.09862997
C 2.53141904 2.10230923 1.25520945
C 1.82441938 3.23204875 1.12186956
H 0.56824982 0.41602984 -0.94120967
H 0.42709982 0.25298992 0.81608969
H 0.49829981 -1.18782961 -0.19650993
H 2.41603899 -0.60843974 2.19145918
H 3.93860865 -1.02024961 1.38702953
H 2.51366901 -2.04977918 1.18413949
H 2.67490888 -0.36652985 -1.99075925
H 2.60447907 -1.79934943 -1.22004950
H 2.77506900 1.77457929 -0.84452969
H 4.10083866 1.21146953 0.15446994
H 2.81116891 1.77409935 2.25375915
H 1.53332937 3.61307859 0.14782993
H 1.52457941 3.80549860 1.99384916
10
Properties=species:S:1:pos:R:3 REF_energy=-0.01943341669719878
O 2.56695914 -1.10641956 0.10963996
C 2.10533929 0.02759999 0.01098000
C 2.91978884 1.22626948 -0.01113000
N 2.35667920 2.43950915 -0.12104996
O 3.40635872 3.34280896 -0.11019996
C 4.57821798 2.67131901 0.00491000
C 4.32974863 1.32693946 0.07165997
H 1.01755965 0.19272992 -0.06777998
H 5.46912813 3.28228879 0.02365999
H 5.04735804 0.52572984 0.16606994
16
Properties=species:S:1:pos:R:3 REF_energy=-0.05939547951157076
C 1.99374926 -0.44314983 -1.26648962
N 2.20655918 0.18571992 0.03528998
C 3.19529867 1.26058960 -0.09259997
C 2.49527907 2.56290889 -0.57916975
C 3.21034884 3.25541878 0.60446978
O 3.53122854 4.39749861 0.85256970
C 3.41917872 1.89448929 1.31031954
H 1.24030960 -1.23059952 -1.16936958
H 2.91397905 -0.90136963 -1.64301944
H 1.62423944 0.27509990 -2.00501919
H 2.47838902 -0.54277980 0.69819969
H 4.12481833 1.00503969 -0.61478978
H 1.40481949 2.60669899 -0.49325979
H 2.80773902 2.91535902 -1.56454945
H 4.41800833 1.75141931 1.72885942
H 2.66126895 1.69973934 2.07599926
15
Properties=species:S:1:pos:R:3 REF_energy=-0.05589176220664993
C 0.92312962 0.01799999 0.18382993
C 2.43613887 0.02869999 -0.02200999
N 2.77995896 1.18192959 -0.86348969
N 3.93512845 1.22399950 -1.57767940
C 4.38494873 0.07149997 -1.96948934
C 3.81925845 -1.25428951 -1.63142931
C 2.90319896 -1.25464952 -0.65520972
H 0.58563977 0.94225961 0.66649973
H 0.62193978 -0.81775969 0.82556969
H 0.38573983 -0.08181997 -0.76667970
H 2.92905903 0.13003995 0.95216960
H 2.61808896 2.06058908 -0.37155986
H 5.29242802 0.04546998 -2.59340906
H 4.20083857 -2.13941908 -2.11613917
H 2.49084926 -2.19274902 -0.29579988
18
Properties=species:S:1:pos:R:3 REF_energy=-0.07232528452702902
N 0.82271969 -0.31202987 0.07818997
C 2.21086931 -0.40440986 -0.36308986
C 2.53860903 -0.05717998 -1.78678930
C 2.95592904 0.86772966 -0.67028975
C 4.40451860 1.01078963 -0.30892989
C 4.64420843 1.15866959 1.16779959
C 5.40199804 0.32689989 1.89452922
H 0.78015971 -0.12151995 1.07914960
H 0.34010985 -1.20007956 -0.06087998
H 2.78134894 -1.21429956 0.08730997
H 1.73348939 0.26840991 -2.43623924
H 3.29483867 -0.64917976 -2.28779912
H 2.41915917 1.80575931 -0.57267982
H 4.79921818 1.90254927 -0.81028968
H 4.97891808 0.16143993 -0.70051974
H 4.16174841 2.00140929 1.65909934
H 5.90308809 -0.52621979 1.44743943
H 5.53625774 0.48553982 2.96031880
14
Properties=species:S:1:pos:R:3 REF_energy=-0.05087694368785545
C 0.97347963 -0.02991999 -0.07472997
C 2.31403923 0.00000000 0.00000000
C 3.01703882 -1.21762955 0.00000000
C 3.61211872 -2.24833918 0.00000000
C 3.13630867 1.21998966 0.01719999
C 2.74656892 2.39804912 0.87910968
N 3.86498857 1.54752946 1.24790955
H 0.39159986 0.88440967 -0.10430996
H 0.42630985 -0.96724963 -0.10299996
H 4.14701843 -3.16890860 0.00813000
H 3.65561867 1.43061948 -0.91299969
H 1.87645924 2.32846928 1.52003944
H 2.98479891 3.39484859 0.52933985
H 4.76014805 1.98038924 1.01943958
17
Properties=species:S:1:pos:R:3 REF_energy=-0.06575332982076154
C 4.24981880 -1.20645964 0.69593972
C 3.19999862 -0.16969994 0.32676986
N 3.79989862 1.13146949 0.05290998
O 4.20679855 1.81279922 1.21333957
C 3.27943897 2.88131905 1.41373956
C 4.62027836 1.34459949 -1.02467954
N 5.53622818 2.24433923 -1.14007962
H 3.77165866 -2.16375923 0.92546964
H 4.82664824 -0.89356965 1.57159948
H 4.95213842 -1.36936951 -0.12816995
H 2.47502899 -0.07572997 1.14394963
H 2.64088893 -0.50652981 -0.55377984
H 3.60755849 3.45697856 2.28300929
H 2.27815914 2.48745918 1.61361945
H 3.25832891 3.54814863 0.54452980
H 4.42884827 0.65201974 -1.86215925
H 5.55310822 2.74703884 -0.24508990
17
Properties=species:S:1:pos:R:3 REF_energy=-0.06687208998561145
N 1.68162942 -0.69997972 1.68138945
C 2.10398912 -0.64199972 0.38960984
N 1.77064931 -1.54081953 -0.47282982
C 3.00123882 0.49616981 -0.04595998
C 4.46479845 0.09796996 0.12232995
C 5.38686800 1.21503949 -0.27896991
C 6.25547791 1.80802929 0.54954982
H 1.72927940 0.15690994 2.22243905
H 0.85372972 -1.25028956 1.87140930
H 1.19743955 -2.25628901 -0.02228999
H 2.76902890 1.38512945 0.55244976
H 2.78378892 0.73647970 -1.09370959
H 4.68762779 -0.77925968 -0.49738979
H 4.65107822 -0.20412992 1.16071951
H 5.34103775 1.53870952 -1.31734943
H 6.34638739 1.51218951 1.58998942
H 6.90311718 2.60469913 0.19620992
12
Properties=species:S:1:pos:R:3 REF_energy=-0.048795949574998
C 0.99226958 0.00482000 0.00804000
C 2.51307917 -0.01258000 -0.00101000
C 3.06470871 -0.74218971 -1.21606946
O 2.99691892 1.32774961 0.00028000
H 0.62252975 0.55401981 0.88063967
H 0.58368975 -1.00989962 0.03483999
H 0.59834975 0.51804978 -0.87618965
H 2.87868881 -0.49388981 0.91169965
H 2.74650884 -0.25721991 -2.14555907
H 2.73621893 -1.78577936 -1.23554945
H 4.15986824 -0.72022974 -1.20930958
H 2.67605901 1.76164937 -0.80793971
16
Properties=species:S:1:pos:R:3 REF_energy=-0.060162107282777155
N 1.15028954 -0.22955991 0.46961984
C 2.44693899 -0.22662991 0.04407999
O 2.97392893 -1.25151956 -0.36832985
C 3.11368871 1.12978959 0.08527997
C 4.63290834 1.00593960 0.00211000
C 5.29422760 2.35415912 0.06614997
C 6.09622812 2.74847889 1.06260955
H 0.71958971 0.56377977 0.92305970
H 0.67114973 -1.12048960 0.49209979
H 2.82664895 1.64082932 1.01217961
H 2.73070908 1.71704936 -0.75834972
H 4.92303801 0.51765978 -0.93643969
H 4.99360800 0.35777986 0.81188971
H 5.11299801 3.03081894 -0.76563972
H 6.31608772 2.10431910 1.90889919
H 6.55513763 3.73179865 1.05001962
15
Properties=species:S:1:pos:R:3 REF_energy=-0.05790340473947131
O 0.94738966 -0.07081997 0.01019000
C 2.35891914 -0.03200999 0.20216992
C 3.00017881 1.24530959 -0.37883988
O 3.07946897 1.16744959 -1.80811930
C 3.97343850 0.12769996 -2.23000908
C 3.68305874 -1.17597950 -1.54497945
C 2.92045879 -1.25757957 -0.44658983
H 0.69660974 0.71738976 -0.50011981
H 2.53470922 -0.06281998 1.27996945
H 2.38825917 2.11984921 -0.14022994
H 4.00450850 1.40714955 0.02804999
H 5.00852823 0.43787983 -2.03577924
H 3.85443854 0.01259000 -3.31293869
H 4.10443830 -2.07495928 -1.98718929
H 2.69627881 -2.22150922 -0.00023000
16
Properties=species:S:1:pos:R:3 REF_energy=-0.05907482683256893
N 0.92088962 -0.10346996 0.15420994
C 2.38453889 -0.03471998 -0.10807996
C 2.72159910 -0.00486000 -1.58172941
O 1.94936931 1.01181960 -2.22031927
C 3.01222897 1.03020966 0.81516969
O 3.30947876 0.01067000 1.81655931
C 3.12479901 -1.02572966 0.81129968
H 0.69806975 0.00151000 1.14909959
H 0.50012982 -0.99475962 -0.11404996
H 2.47992897 -0.95928967 -2.06181908
H 3.78119850 0.20388992 -1.75771940
H 1.07900965 0.99319965 -1.77236938
H 2.34814906 1.80724931 1.20576966
H 3.93606853 1.49394941 0.45319980
H 4.09200859 -1.38452947 0.44382983
H 2.54819894 -1.87224925 1.19563949
18
Properties=species:S:1:pos:R:3 REF_energy=-0.06711401288224472
C 1.05581963 0.02942999 -0.08510997
C 2.54776907 0.03660998 -0.09814996
C 3.29853892 -0.62630981 -1.21838963
C 3.34179878 0.88209969 -1.07517958
N 2.60451913 1.68266940 -2.07798910
C 4.63161802 1.51105940 -0.56829977
O 5.43592787 1.88493919 -1.68560946
H 0.67961973 0.92027968 0.42697984
H 0.69299972 -0.85043967 0.45554984
H 0.62528974 0.00240000 -1.09104955
H 2.94141889 -0.07114998 0.90731961
H 2.72761893 -1.06223953 -2.03062916
H 4.18046856 -1.20183957 -0.95841962
H 2.35457921 1.11870968 -2.88812876
H 3.22361875 2.41463900 -2.43837929
H 5.20860815 0.82723969 0.06274997
H 4.41080856 2.41300893 0.01116000
H 5.52909756 1.08499956 -2.23029923
20
Properties=species:S:1:pos:R:3 REF_energy=-0.07910755510089529
C 2.07653928 -0.71237975 -1.27515960
N 1.79340935 0.41949984 -0.39979985
C 3.01141882 1.13141954 0.06232998
C 3.78839850 0.42433983 1.14970958
C 3.77865863 1.97668934 -0.93205965
C 2.91832876 2.65287900 0.09896997
C 3.53884888 3.47693872 1.17549956
H 2.60727906 -0.39987984 -2.17925930
H 1.13418949 -1.17596948 -1.58214939
H 2.66427898 -1.47949946 -0.76384968
H 1.16568959 1.05859971 -0.88688970
H 4.72093821 0.93878961 1.40043950
H 4.06191826 -0.58980978 0.84064966
H 3.18440890 0.35321987 2.06072927
H 3.44408894 2.00716925 -1.96253932
H 4.85646820 2.03590941 -0.83143973
H 1.99254918 3.10815907 -0.23749991
H 4.57835865 3.20085883 1.37667954
H 2.96792889 3.37668872 2.10372925
H 3.53050876 4.53309822 0.88653964
13
Properties=species:S:1:pos:R:3 REF_energy=-0.048138219980871644
C 0.35128987 1.44970942 0.35191989
C -0.76269966 0.79070973 -0.41051984
C -1.36067951 -0.43711984 0.09605996
C -0.46194983 -1.42152953 0.20711991
C 0.87602967 -0.90542966 -0.23302990
N 0.66667974 0.49315980 -0.70691973
H 0.57115978 2.48653913 0.12670995
H 0.54440981 1.16248965 1.37862957
H -1.29009950 1.34074950 -1.17952955
H -2.40953898 -0.52445978 0.34329987
H -0.65208977 -2.42364907 0.55599982
H 1.60588944 -0.94220966 0.58280975
H 1.25297952 -1.50925934 -1.06470966
16
Properties=species:S:1:pos:R:3 REF_energy=-0.05915653386727948
C 2.46664906 4.34461832 0.17918994
O 3.33020878 3.27667880 -0.20983993
N 3.77853847 3.52139854 -1.53497934
C 3.10137892 2.64441895 -2.47022915
C 5.14930773 3.69489861 -1.66891932
C 5.88297749 4.16196871 -0.43670985
O 5.74967766 3.51536870 -2.72913909
H 3.03198886 5.27590799 0.27929989
H 2.03040934 4.09382868 1.14996958
H 1.65454936 4.47429848 -0.54356980
H 3.38909888 1.60923934 -2.26167917
H 3.38967872 2.89474893 -3.49483871
H 2.01998925 2.75554895 -2.35627913
H 5.91921806 3.35776877 0.30253989
H 5.40066814 5.04600811 -0.01377999
H 6.90786743 4.43255854 -0.70742977
21
Properties=species:S:1:pos:R:3 REF_energy=-0.0842081863136781
C 1.09337962 -0.23947990 0.13706996
C 2.61652899 -0.09192996 0.20020992
N 3.19676876 -0.88009965 -0.89616966
C 3.09588885 1.38627946 0.12296995
C 2.44824910 2.24111915 1.22498953
C 4.63689852 1.46523941 0.21622992
N 5.13534784 2.83507895 0.06344998
H 0.61594975 0.18236993 1.02634954
H 0.80079967 -1.29506946 0.09694996
H 0.67911977 0.25903991 -0.74588972
H 2.96552896 -0.52920979 1.14398956
H 2.83528900 -0.54194975 -1.78836930
H 2.88690877 -1.84924924 -0.82054973
H 2.78515911 1.80396926 -0.84510970
H 2.66668892 1.83428931 2.21836925
H 1.36138952 2.28958893 1.10584962
H 2.80662894 3.27505875 1.19696951
H 5.10447836 0.85344970 -0.56215978
H 4.97389841 1.07631958 1.18386948
H 4.87485838 3.18253899 -0.85897970
H 6.15487766 2.81762910 0.07998997
14
Properties=species:S:1:pos:R:3 REF_energy=-0.04576809246484137
C 0.97710967 -0.00699000 0.05350998
C 2.49090910 -0.02228999 0.09225997
C 3.10239863 1.11657953 0.88198966
O 4.32741833 0.56756979 1.38875949
C 4.21270847 -0.79400969 1.36469948
O 5.05321836 -1.57394946 1.77623940
N 3.03232884 -1.15351963 0.76934969
H 0.59666973 -0.87392962 -0.49727982
H 0.60972977 0.89932966 -0.43817982
H 0.55005980 -0.04768998 1.06149960
H 2.89689898 -0.03441999 -0.92667967
H 2.49120903 1.43106949 1.73526931
H 3.31568885 1.98699927 0.25463989
H 2.94600892 -2.11358929 0.46208984
18
Properties=species:S:1:pos:R:3 REF_energy=-0.07145742467467597
C 0.97814965 -0.00011000 0.06611998
C 2.50386906 0.01826999 -0.06164997
C 3.03943872 -1.31909955 -0.61874974
O 2.69520903 -1.49942946 -1.99889922
C 3.21146894 -0.42168987 -2.78840899
C 2.68151903 0.93442965 -2.30035901
N 2.95366883 1.17376959 -0.87002969
H 0.60656977 0.95833963 0.44533983
H 0.66631973 -0.77650970 0.77433974
H 0.47886983 -0.20655991 -0.88595968
H 2.90860891 0.14964995 0.94948965
H 2.62108898 -2.16286922 -0.05906998
H 4.13113832 -1.37036943 -0.51881981
H 4.30713797 -0.44951984 -2.76097894
H 2.90075874 -0.59050977 -3.82401848
H 3.13806868 1.73910928 -2.88750887
H 1.60109937 0.99433959 -2.47486901
H 3.96409869 1.26242959 -0.75582969
12
Properties=species:S:1:pos:R:3 REF_energy=-0.03827636111897392
C 0.93177968 0.02437999 -0.00788000
C 2.41248894 -0.00949000 -0.00089000
C 3.27744865 1.06608963 0.00282000
O 4.56897831 0.64903980 0.00888000
C 4.54417801 -0.70697969 0.00901000
C 3.24691868 -1.16279960 0.00308000
H 0.55711979 1.05228961 0.00219000
H 0.53427976 -0.49069980 0.87177968
H 0.54339981 -0.47025985 -0.90317965
H 3.13627863 2.13838911 0.00191000
H 5.50984812 -1.19261956 0.01354000
H 2.93844891 -2.19903922 0.00179000
17
Properties=species:S:1:pos:R:3 REF_energy=-0.06528422090780372
C 0.76900971 -0.47424984 -0.31558987
C 2.22039938 -0.08283997 -0.03377999
N 3.11917877 -1.05034959 -0.67353976
C 2.55069923 1.32306945 -0.54318976
C 1.81152928 2.36227918 0.25277990
N 0.92392963 3.11720872 -0.30830988
O 0.39410985 3.98301840 0.65453976
H 0.07396997 0.18686992 0.21231991
H 0.56568980 -1.49614942 0.02443999
H 0.53844982 -0.42230985 -1.38548946
H 2.38898921 -0.12875995 1.04873967
H 2.96452904 -1.04956961 -1.68250942
H 2.88756895 -1.99316931 -0.36005986
H 2.31043911 1.42925954 -1.60737944
H 3.61978865 1.53081942 -0.41473982
H 2.05608916 2.44496918 1.32674944
H -0.23105991 4.51964855 0.13151994
13
Properties=species:S:1:pos:R:3 REF_energy=-0.042668629425794746
N 2.52425909 -0.72984976 -1.33836961
C 2.43692899 -0.07969997 -0.02631999
C 2.96954894 1.32724941 -0.03248999
N 2.23419929 2.40910912 0.13559996
C 3.03511882 3.53282857 0.08086997
C 4.37877846 3.29859877 -0.10700995
S 4.66127825 1.61256933 -0.22348991
H 2.19397926 -1.68882942 -1.25436950
H 3.50262856 -0.78048974 -1.61751938
H 2.97906876 -0.67832977 0.71505976
H 1.38574958 -0.06101998 0.28261989
H 2.58098888 4.51000834 0.18759993
H 5.18305826 4.01506853 -0.17841993
19
Properties=species:S:1:pos:R:3 REF_energy=-0.07658519623379179
C 0.82160968 -0.12791994 0.14875995
C 2.30732918 0.01791999 0.26744992
C 3.05395889 1.12099957 0.05052998
C 2.46392894 2.46481919 -0.31086987
C 4.57198811 1.15190959 0.16950995
C 5.26783800 -0.11435996 0.66167974
O 5.10398817 1.46457946 -1.11686969
H 0.59140980 -1.03100967 -0.42627984
H 0.33738986 0.70650977 -0.36175984
H 0.37753987 -0.23675992 1.14267957
H 2.79790878 -0.91144967 0.55108976
H 1.38182950 2.51620889 -0.17200993
H 2.68315887 2.70775890 -1.35550952
H 2.89223886 3.24916863 0.32297990
H 4.85372829 1.96758926 0.84578967
H 5.11253834 -0.95182967 -0.02803999
H 4.92368793 -0.40281987 1.65987933
H 6.35121775 0.04623998 0.70671976
H 4.70521784 0.83475971 -1.74170935
12
Properties=species:S:1:pos:R:3 REF_energy=-0.039344887486383096
C 1.01209962 -0.07735997 0.01268000
O 2.43134904 -0.00918000 0.01254999
C 2.89400887 1.33854949 0.00000000
C 4.33800840 1.33854949 0.00000000
C 5.52816820 1.33854949 0.00000000
C 7.06259775 1.33476949 0.00003000
N 8.22215748 1.34259951 -0.00004000
H 0.71786976 -1.13026953 0.02269999
H 0.60553974 0.39021987 -0.88927966
H 0.60485977 0.40749985 0.90515965
H 2.51302910 1.86182928 0.88421965
H 2.51306891 1.84527934 -0.89382970
10
Properties=species:S:1:pos:R:3 REF_energy=-0.021887339999481892
C 0.91857964 0.02456999 -0.00188000
C 2.11904907 0.01394999 -0.00062000
C 3.53912854 0.00013000 0.00087000
C 4.36701822 1.09048951 0.00195000
O 5.66015816 0.67424977 0.00323000
N 5.69596815 -0.71433973 0.00300000
C 4.41519833 -1.09769952 0.00157000
H -0.14674994 0.03418999 -0.00300000
H 4.21956825 2.15986919 0.00200000
H 4.18588829 -2.15376925 0.00113000
12
Properties=species:S:1:pos:R:3 REF_energy=-0.04259630137205295
C 1.00096965 -0.05421998 0.00304000
C 2.51999903 0.00000000 0.00000000
C 3.00201893 1.36116946 0.00000000
C 3.39929867 2.48306894 0.00000000
C 3.89675856 3.83653855 0.00000000
O 3.13200879 4.78962851 0.00001000
H 0.65761971 -1.09362960 0.00217000
H 0.58495975 0.44200984 -0.88069969
H 0.58864981 0.43929982 0.89001966
H 2.89561892 -0.53274983 -0.88082963
H 2.89922881 -0.53413981 0.87843966
H 4.99326849 3.94062853 0.00000000
15
Properties=species:S:1:pos:R:3 REF_energy=-0.05742186084644574
C 2.49658895 -1.05164957 0.58843976
C 2.08342910 0.17864993 0.26516992
C 2.93739891 1.32764947 0.13026994
C 2.53348923 2.56925917 -0.19421992
C 3.67048860 3.45613861 -0.23397993
C 4.78107834 2.76914883 0.06504998
C 4.43335819 1.33141947 0.33094987
H 1.78192925 -1.86571932 0.66924977
H 3.53728867 -1.28886950 0.78021967
H 1.02135956 0.33908987 0.08720996
H 1.52230942 2.88621902 -0.39936987
H 3.61182857 4.50768852 -0.47060981
H 5.78037786 3.17513871 0.11134996
H 4.93905783 0.67403978 -0.38332987
H 4.70507812 1.05189955 1.35374951
18
Properties=species:S:1:pos:R:3 REF_energy=-0.07356171449911897
C 0.82352972 -1.19304955 0.51616979
C -0.43212983 -1.52005947 -0.30664989
C -1.55941939 -0.52900982 -0.19989993
C -1.46143949 0.76224971 0.15000995
C -0.18796994 1.53111947 0.38613984
C 1.00671959 1.06759953 -0.46141982
N 1.69475937 -0.14712994 -0.01910999
H 1.42819953 -2.10495925 0.59362978
H 0.54596978 -0.94267964 1.54760945
H -0.81636965 -2.48036909 0.06206998
H -0.17758994 -1.67577934 -1.36166942
H -2.55247903 -0.93212968 -0.39303985
H -2.37975907 1.34161949 0.24074991
H 0.05599998 1.53344941 1.45493937
H -0.38938984 2.57616901 0.11656995
H 1.75368941 1.87024927 -0.46620983
H 0.69069976 0.94513965 -1.50571942
H 2.22885919 -0.51767981 -0.80454969
16
Properties=species:S:1:pos:R:3 REF_energy=-0.058957304987839576
C 1.16667962 -0.02443999 -0.03219999
N 2.62156892 -0.14241995 -0.06381997
C 3.12893891 -0.75141972 -1.28132951
C 3.25303864 0.74319971 -1.05128968
C 4.55040836 1.43123949 -0.66627973
C 5.91869783 1.01086962 -1.14267957
O 5.21651793 2.09335923 -1.75835931
H 0.88001966 0.80606967 0.62116981
H 0.73494977 -0.93961966 0.38606986
H 0.70427978 0.14474994 -1.01241958
H 2.42550898 -1.09954965 -2.02777910
H 4.00905848 -1.37074947 -1.16321957
H 2.58276892 1.37039948 -1.63730943
H 4.51556826 1.98125923 0.27073991
H 6.01797819 0.09288996 -1.70605934
H 6.77045774 1.25334954 -0.52067983
18
Properties=species:S:1:pos:R:3 REF_energy=-0.07046621372383854
C 0.99999964 0.00000000 0.00000000
C 2.44399905 0.00000000 0.00000000
C 3.63415861 0.00000000 0.00000000
C 5.07815790 0.00000000 0.00000000
C 5.60654783 -0.81613964 -1.18199956
C 5.61238766 1.44879937 -0.02062999
N 7.06963730 1.52911937 0.11024995
H 0.60601974 1.02087963 0.01158000
H 0.60593975 -0.52047980 0.87827963
H 0.60601974 -0.50035977 -0.88992965
H 5.42630816 -0.48277983 0.92278969
H 5.31778812 -0.36677986 -2.13959932
H 5.20613813 -1.83679938 -1.16337955
H 6.69877720 -0.89145964 -1.15876961
H 5.16122818 2.02338934 0.79801971
H 5.31794786 1.94478929 -0.95376962
H 7.35102749 1.14451957 1.01157963
H 7.34906721 2.50962901 0.12125996
17
Properties=species:S:1:pos:R:3 REF_energy=-0.06384139843363812
C 0.92822963 -0.01364999 0.17208993
C 2.43380928 0.00888000 -0.06381997
C 2.78274894 0.01404999 -1.54884946
C 3.19574857 1.07612967 0.78808969
C 4.16253853 0.00394000 1.34166956
C 3.22012877 -1.05978966 0.75124973
O 3.13666892 -2.26263905 0.87193972
H 0.68897974 -0.04464998 1.24076962
H 0.47160980 -0.89287966 -0.29525986
H 0.45404983 0.87881970 -0.25030988
H 3.86696839 0.02294999 -1.70689940
H 2.36755919 0.89839965 -2.04386926
H 2.38165903 -0.87449968 -2.04825926
H 2.58970904 1.54944944 1.57043934
H 3.68371868 1.87313938 0.21712992
H 5.15340853 -0.00195000 0.87899965
H 4.25362825 -0.02468999 2.42915893
14
Properties=species:S:1:pos:R:3 REF_energy=-0.051942638050108014
C 1.99466932 -0.59041977 -1.20418954
C 2.11305928 0.34021989 -0.24728991
C 3.24613881 1.25066960 -0.06643997
N 3.55142879 2.18746924 -1.14152956
C 2.98928905 2.73456883 0.08995996
C 3.84998870 3.49695873 0.94480962
C 4.56904840 4.13823843 1.66064942
H 1.12228954 -1.23372960 -1.25483954
H 2.77149916 -0.73044974 -1.95026934
H 1.31031954 0.42242986 0.48383984
H 4.10690832 0.82442969 0.43969983
H 2.83796883 2.14470935 -1.86862934
H 1.96610928 3.08903885 0.01508999
H 5.21464825 4.70736837 2.28852916
14
Properties=species:S:1:pos:R:3 REF_energy=-0.047849194707410225
C 1.04450965 -0.08232997 0.46025982
C 2.31786895 -0.62893975 -0.11253995
C 2.54382920 -1.94643927 -0.25142992
C 3.30083895 0.39972985 -0.57088977
O 2.95374894 1.53924942 -0.87393969
N 4.61875820 0.02735999 -0.52973980
O 5.55919790 1.06151962 -0.74844974
H 1.25679958 0.55404979 1.32571959
H 0.37083986 -0.87953967 0.79260969
H 0.50882983 0.51217979 -0.28742987
H 1.80415928 -2.67419887 0.07143997
H 3.43976855 -2.34761906 -0.71358973
H 4.95066833 -0.79018974 -0.03271999
H 4.97860813 1.83579922 -0.92079967
15
Properties=species:S:1:pos:R:3 REF_energy=-0.05586102635154644
O 0.98515964 0.06710997 0.01701999
C 2.39765930 0.04630998 -0.02987999
C 2.97068882 1.13422954 0.84346968
C 4.32738829 0.56699973 1.19388962
O 4.15052843 -0.84993970 1.35180950
C 3.01127887 -1.16159952 0.61622977
C 2.54968905 -2.41692901 0.60257977
H 0.67272979 -0.71027976 -0.47333983
H 2.73832893 0.14819993 -1.06634963
H 2.36124897 1.27223957 1.74579942
H 3.03175879 2.10373926 0.34019989
H 5.05635834 0.73703974 0.39237985
H 4.72292805 0.99033964 2.12206936
H 1.65060937 -2.69820905 0.07039997
H 3.07722902 -3.19684887 1.14300954
16
Properties=species:S:1:pos:R:3 REF_energy=-0.06299427982033534
C 0.98386961 -0.00678000 -0.01672999
C 2.51999903 0.00000000 0.00000000
C 3.01472878 -0.72361976 1.26198947
C 3.04282880 -0.73660970 -1.24249959
C 3.00201893 1.36116946 0.00000000
C 3.39929867 2.48306894 0.00000000
H 0.59155977 0.50109982 -0.90610963
H 0.57240981 0.50814980 0.85986966
H 0.59108979 -1.02999961 -0.01681999
H 2.66151905 -0.22503991 2.17274928
H 4.11033869 -0.74448967 1.30687952
H 2.66013908 -1.76021934 1.29058945
H 2.70426893 -0.25219992 -2.16637921
H 2.69463897 -1.77564931 -1.26409948
H 4.13924837 -0.75194973 -1.26620948
H 3.75502849 3.48760867 0.00000000
15
Properties=species:S:1:pos:R:3 REF_energy=-0.05314801644680478
C -0.10125996 1.38753951 0.56432980
C -1.46266949 0.74021977 0.25533989
C -1.54594934 -0.49972981 -0.28969988
C -0.29182991 -1.36694944 -0.49834982
C 0.79638970 -0.80948973 0.34907985
O 2.02343917 -0.17578994 0.11708996
C 0.93991965 0.65183979 -0.20234993
H 0.08343997 1.38887942 1.64406943
H -0.12641995 2.42994905 0.22857992
H -2.35741925 1.32742953 0.44029981
H -2.50929904 -0.93091965 -0.54596978
H -0.51562983 -2.38807917 -0.17127994
H -0.02884999 -1.40660954 -1.56086946
H 0.58456975 -0.99399966 1.39883947
H 0.84111971 0.86239970 -1.26381958
17
Properties=species:S:1:pos:R:3 REF_energy=-0.06449494180472493
C 0.94576961 -0.00268000 0.07035997
C 2.46243906 -0.00516000 0.04667998
C 3.16503882 1.08644962 0.90666968
C 4.15136862 -0.02116999 1.34071946
O 5.26161814 -0.01944999 1.82582927
C 3.16353893 -1.12651956 0.88906962
C 3.76199865 -2.27417922 0.10294996
H 0.55198979 -0.87132967 -0.46711981
H 0.55495977 0.89781970 -0.41401982
H 0.55832976 -0.03272999 1.09379959
H 2.81770897 0.02154999 -0.99434960
H 2.57946897 1.48194945 1.74189937
H 3.61530876 1.90537930 0.34230986
H 2.56073904 -1.48576951 1.73374927
H 4.38891840 -1.91850924 -0.72118974
H 2.97153902 -2.90296888 -0.31913987
H 4.38047838 -2.90342903 0.75097972
15
Properties=species:S:1:pos:R:3 REF_energy=-0.057310900307191326
C 1.00138962 -0.05438998 0.00366000
C 2.51999903 0.00000000 0.00000000
C 3.00201893 1.36116946 0.00000000
C 3.39929867 2.48306894 0.00000000
C 3.88131857 3.84423852 0.00000000
C 3.29839873 5.16535807 0.00000000
C 2.81794906 6.25422764 0.00000000
H 0.65699977 -1.09331954 0.00351000
H 0.58467978 0.44175985 -0.88056970
H 0.58887976 0.44016984 0.89044964
H 2.89529896 -0.53271979 -0.88098967
H 2.89945889 -0.53418982 0.87830967
H 4.57200813 3.87012839 -0.85944968
H 4.57200813 3.87012839 0.85944968
H 2.38473916 7.22796726 0.00000000
15
Properties=species:S:1:pos:R:3 REF_energy=-0.05598772429898369
C 1.03624964 -0.30485988 -0.12798995
C 2.50940919 -0.04781998 -0.12441996
C 3.13901877 1.13798952 0.00000000
C 2.43328905 2.47062922 0.10683995
O 2.35443926 2.88457870 1.46505940
C 4.54501867 1.13798952 0.00000000
C 5.73517752 1.13798952 0.00000000
H 0.80233967 -1.09239960 0.59545976
H 0.72077972 -0.64735979 -1.11789954
H 0.44126984 0.57014978 0.14240995
H 3.11490870 -0.95068961 -0.22101992
H 1.42004943 2.44118905 -0.30190986
H 2.97221875 3.24093866 -0.45551986
H 2.32348919 2.08145928 2.01185918
H 6.80028772 1.14097953 0.00196000
15
Properties=species:S:1:pos:R:3 REF_energy=-0.05679818304329032
N 1.03882968 0.03250999 0.07960997
C 2.48902917 0.03840999 -0.06594998
C 3.10039878 1.05968964 0.91357964
C 4.15915871 -0.01521999 1.25177956
C 3.11629891 -1.07944953 0.82299966
O 3.62032866 -2.24133921 0.13397995
H 0.60108978 -0.81222969 -0.28837991
H 0.57502979 0.81429964 -0.37945986
H 2.86269903 0.08319997 -1.09353960
H 2.47640896 1.33224952 1.77427936
H 3.49185872 1.97467923 0.45997983
H 5.05137825 0.02176999 0.61673975
H 4.46903849 -0.05113998 2.29921913
H 2.48676896 -1.39493942 1.66648936
H 4.19208860 -1.89557934 -0.57218975
17
Properties=species:S:1:pos:R:3 REF_energy=-0.06446261138565235
C 0.97684962 0.00745000 -0.02679999
C 2.49373913 0.03351999 0.01097000
O 2.96726871 0.18684992 -1.33170950
C 3.06888890 1.14119959 0.86897963
C 4.46684837 0.62990981 1.16481948
O 4.43444824 -0.80325967 1.06405962
C 3.11146879 -1.20200944 0.65488976
H 0.54596978 -0.10067996 0.97329962
H 0.61998975 -0.82207966 -0.64792979
H 0.58452976 0.92705965 -0.47465983
H 3.90398860 -0.08383997 -1.34686947
H 2.51149893 1.23639953 1.80863929
H 3.09567881 2.11935925 0.37956986
H 5.18978786 0.99766964 0.42931986
H 4.81212807 0.91915965 2.16153932
H 3.20324874 -2.04592919 -0.03477999
H 2.56981897 -1.51996946 1.55225945
12
Properties=species:S:1:pos:R:3 REF_energy=-0.041650290453430494
C 0.97791964 0.07456998 -0.15825994
C 2.41443896 0.30728990 0.14526995
O 3.30683875 -0.65961981 -0.42005986
C 3.38827872 0.67977971 -0.94173962
C 4.63368797 1.39037943 -0.60464978
O 4.69345856 2.61206913 -0.65721971
H 0.41613987 1.00794971 -0.05492998
H 0.55839980 -0.65548974 0.54076982
H 0.82770967 -0.30265990 -1.17524946
H 2.59096885 0.64321977 1.15833950
H 3.00548887 0.85593969 -1.93891919
H 5.49908781 0.77127969 -0.31588987
16
Properties=species:S:1:pos:R:3 REF_energy=-0.05923295644412341
C 1.20996952 -0.25153992 0.00379000
C 2.65747881 0.22946991 -0.02169999
C 2.87335896 1.51696944 0.72851974
C 3.83900833 1.33311951 1.63438940
C 4.35105848 -0.03020999 1.61654937
C 3.42943883 -1.16960955 1.92850924
N 3.62755871 -0.76559973 0.53773981
H 1.11556959 -1.22746956 -0.48412982
H 0.56640983 0.45195982 -0.53602982
H 0.81372970 -0.33822986 1.02034962
H 2.94274902 0.39699984 -1.06814969
H 2.34397912 2.43762898 0.53959978
H 4.21008825 2.09373927 2.30748916
H 5.42314768 -0.17875993 1.63805938
H 3.87641859 -2.11683917 2.20598912
H 2.48321891 -0.96749961 2.41325903
19
Properties=species:S:1:pos:R:3 REF_energy=-0.07614339302031015
C 1.07680964 -0.09033997 0.30902988
C 2.54495907 0.10372996 -0.00164000
C 3.28953862 1.20246947 0.77040976
C 4.29502821 0.08251997 1.10605967
C 4.57361794 -0.10944996 2.58750892
C 5.56323814 0.07124998 0.26091990
O 3.35896873 -0.92464966 0.62649977
H 0.69858974 -0.99731964 -0.17326993
H 0.49114981 0.75567973 -0.06404997
H 0.89907968 -0.17923993 1.38522947
H 2.73386884 0.12473995 -1.08281958
H 2.74646902 1.61378932 1.62757945
H 3.67008853 2.02319932 0.15713994
H 3.64600849 -0.16630994 3.16756892
H 5.16521788 0.72413975 2.98403907
H 5.13389826 -1.03508961 2.76726890
H 5.33614826 0.15138994 -0.80836970
H 6.12562752 -0.85660970 0.40996987
H 6.21516800 0.91035968 0.52589977
16
Properties=species:S:1:pos:R:3 REF_energy=-0.057162653861965174
C 1.00132966 -0.08543997 0.22983992
C 2.47560906 0.09620997 -0.06946997
C 3.25980878 1.10618961 0.80034971
N 3.90090847 -0.04494998 1.44726944
C 5.26025820 -0.07719997 1.91074932
C 3.42461872 -0.94821960 0.53952980
O 3.75357866 -2.08535910 0.29434991
H 0.60562980 -0.95976967 -0.29600990
H 0.43445984 0.79013968 -0.10356995
H 0.81570971 -0.21957992 1.30056953
H 2.65207911 0.23092991 -1.14309955
H 2.66632891 1.70434928 1.49644947
H 3.96204853 1.74461937 0.25567991