14
Properties=species:S:1:pos:R:3 REF_energy=-0.05392076726676598
C 0.93345964 -0.15744995 -0.06326998
C 2.41524887 0.04459998 -0.11448996
C 3.08062887 1.20867944 0.00303000
C 2.50169921 2.57730889 0.18531993
C 4.56965828 1.14603949 -0.06485998
O 5.27878809 2.14032936 0.03317999
H 0.69612974 -0.92855966 0.67670971
H 0.57274973 -0.49936980 -1.03811967
H 0.37829986 0.74120969 0.21192992
H 2.97329903 -0.88059962 -0.25681990
H 1.41106951 2.59314919 0.12835994
H 2.87000895 3.25432897 -0.59308982
H 2.78913903 2.98382878 1.16072965
H 5.00627804 0.14338996 -0.20769992
16
Properties=species:S:1:pos:R:3 REF_energy=-0.06511937336599694
C 0.68525970 0.01769999 -0.55295980
C 2.19039917 -0.15078995 -0.48465982
O 2.75863910 1.08121967 -0.04724998
C 4.17187834 0.99144965 0.09121997
O 4.56605816 0.13942994 1.16097951
C 4.20105839 0.67967975 2.42405915
H 0.20339993 -0.90860969 -0.87761968
H 0.41782984 0.81885970 -1.24944949
H 0.28535989 0.29986987 0.42652985
H 2.58185911 -0.40756983 -1.47523940
H 2.43688917 -0.95378965 0.21844992
H 4.57016850 1.99936926 0.25292990
H 4.61476851 0.61306977 -0.83677965
H 4.52999830 -0.01573999 3.20089865
H 3.11574888 0.79380965 2.50197911
H 4.69491816 1.64218938 2.58777905
16
Properties=species:S:1:pos:R:3 REF_energy=-0.05745015294361577
N 0.97415966 0.07294997 0.18192993
C 2.40297914 0.08731997 -0.09699996
C 3.10230899 1.07441962 0.85568970
C 4.13945866 -0.02841999 1.16012955
O 5.38907814 0.02688999 0.43532985
C 3.10799861 -1.07716966 0.65230972
O 3.64134860 -2.11716938 -0.19874993
H 0.50677979 -0.75501972 -0.19360992
H 0.47356981 0.86807966 -0.21401991
H 2.67717886 0.18706992 -1.15467954
H 2.53170896 1.38006949 1.74152935
H 3.50300860 1.97236931 0.37410986
H 4.35510826 -0.12363996 2.23005939
H 5.14009809 0.10672995 -0.50398982
H 2.53467917 -1.51928937 1.47621953
H 4.52236795 -2.29832911 0.17333993
18
Properties=species:S:1:pos:R:3 REF_energy=-0.06862739285670605
C 0.81862968 0.05245998 -0.02842999
C 2.29010916 -0.08013996 0.14559995
C 3.14818883 -0.99873960 -0.68506974
C 2.71902919 -1.56366944 -2.00151920
C 2.96998882 -0.42225984 -2.97007895
C 2.84878898 0.84076965 -2.12341928
N 3.28587890 0.48023981 -0.76468968
H 0.49577981 1.05788958 0.26262990
H 0.30659989 -0.66214979 0.62511981
H 0.46808982 -0.13333994 -1.04697967
H 2.55102897 0.01153000 1.19616950
H 3.97805858 -1.51828945 -0.22432992
H 3.30318880 -2.44793892 -2.27433920
H 1.66368937 -1.85220933 -1.98622930
H 3.99031854 -0.49926981 -3.36772895
H 2.27724934 -0.43290982 -3.81695843
H 3.50314879 1.62189949 -2.52441907
H 1.83227932 1.24585950 -2.14523911
12
Properties=species:S:1:pos:R:3 REF_energy=-0.04421443193323793
C 0.99020964 -0.02532999 0.02160999
C 2.51999903 0.00000000 0.00000000
C 3.01775885 -0.77080977 -1.15831959
C 3.42630887 -1.39420950 -2.10138917
C 3.00201893 1.36116946 0.00000000
C 3.39929867 2.48306894 0.00000000
H 0.59953976 0.50319982 0.89924961
H 0.61484981 -1.05495965 0.05428998
H 0.56621981 0.45381981 -0.86994970
H 2.87255907 -0.49825981 0.91210961
H 3.79202867 -1.93917930 -2.94047904
H 3.75759864 3.48667884 -0.00467000
17
Properties=species:S:1:pos:R:3 REF_energy=-0.06374212823005032
C 1.03432965 -0.04125999 -0.01751999
C 2.52546906 -0.04290998 0.00057000
C 3.34660864 -0.73793977 -1.06233954
C 2.72806907 -1.46720934 -2.20634913
C 3.30097866 0.77518970 -1.01151967
C 4.51085854 1.52412939 -0.60070980
O 5.33623791 1.88537931 -1.42881942
H 0.65511978 0.72665972 0.66422975
H 0.65251976 -1.01048958 0.31769988
H 0.62462974 0.16532993 -1.01079965
H 2.89946890 -0.10426997 1.01788962
H 4.25740814 -1.23202956 -0.73720974
H 1.89564931 -0.91812962 -2.65667892
H 2.35772896 -2.44224930 -1.87496924
H 3.47573876 -1.63632941 -2.98787904
H 2.73460913 1.27750957 -1.78997934
H 4.62055826 1.74588931 0.47362980
12
Properties=species:S:1:pos:R:3 REF_energy=-0.04508757745327652
C 1.02086961 -0.11291996 0.16344994
C 2.21289921 -0.00214000 0.06128998
C 3.64407873 0.13313995 -0.07184997
C 4.32496834 1.14785957 0.85331964
C 5.21254826 -0.02695999 1.25335956
O 4.32375813 -0.96461964 0.59794974
H -0.03557999 -0.21952991 0.25385991
H 3.97830844 0.19671993 -1.11490953
H 3.71049857 1.54151940 1.66882944
H 4.83928823 1.96951926 0.34880987
H 6.20784760 -0.04251998 0.79888976
H 5.28720808 -0.21446992 2.32752895
20
Properties=species:S:1:pos:R:3 REF_energy=-0.08074458717019661
C 1.14227951 0.09687996 0.15824994
C 2.66171908 0.00534000 -0.03266999
C 2.95037889 -0.71946973 -1.35352945
N 3.24243879 1.35797954 -0.06757998
C 3.22977877 1.98966920 1.28268945
C 4.63668823 2.52899909 0.96649963
C 4.73064852 1.31277955 0.02876999
H 0.88512969 0.55574977 1.11864960
H 0.69176978 -0.90165967 0.14366995
H 0.67322975 0.68729979 -0.63618976
H 3.07722902 -0.59505975 0.78850973
H 2.55605912 -0.16263995 -2.21068907
H 2.48676896 -1.71186936 -1.35722959
H 4.02499866 -0.86157966 -1.50695944
H 3.20795870 1.30000949 2.13642931
H 2.46019912 2.75414896 1.42355955
H 4.64167833 3.49639869 0.45074984
H 5.34395790 2.55602908 1.79847932
H 5.25586796 1.49208939 -0.91376966
H 5.15409803 0.42145985 0.50925982
20
Properties=species:S:1:pos:R:3 REF_energy=-0.08155888028431102
C 1.01710963 0.09887996 0.04130998
C 2.50748920 -0.11951996 -0.19665992
C 2.71912909 -1.06600964 -1.37438941
O 3.08113885 1.16688955 -0.44878983
C 4.51362848 1.16964948 -0.42565984
C 5.00677824 2.62123919 -0.46190983
N 4.62861824 3.34145856 0.75881970
H 0.86100966 0.78307974 0.88256967
H 0.50516981 -0.84343970 0.26038989
H 0.54328978 0.56120980 -0.83203971
H 2.94569898 -0.54513979 0.71404970
H 2.40073919 -0.60056978 -2.31336927
H 2.16577911 -2.00039911 -1.23703945
H 3.77740860 -1.32094944 -1.48818946
H 4.89105797 0.64617974 -1.30971944
H 4.88172817 0.66425979 0.47494984
H 4.56249857 3.13697863 -1.32044947
H 6.09555769 2.64450908 -0.56804979
H 3.62497854 3.19852877 0.89662969
H 4.75430822 4.34089851 0.60857981
13
Properties=species:S:1:pos:R:3 REF_energy=-0.0365561489878401
C 0.96669960 -0.04122999 -0.12906995
N 2.40160918 0.03760999 0.10128997
C 3.14020872 -1.21144962 0.04289998
C 3.11178875 1.24412954 0.13701995
O 4.33711815 1.29207957 0.22238992
C 2.37470913 2.50524902 0.06145998
N 1.75411940 3.48866868 -0.00544000
H 0.45712984 0.89085966 0.12127995
H 0.54860979 -0.84122968 0.48906982
H 0.79729974 -0.26883990 -1.18555951
H 2.68400908 -1.92838931 0.73171973
H 4.18978834 -1.07967949 0.31805989
H 3.08765888 -1.60053933 -0.97826964
15
Properties=species:S:1:pos:R:3 REF_energy=-0.05274848941832522
C 0.99745959 0.02318999 0.53890979
C 2.32473898 -0.01411999 -0.13594995
C 2.62570882 0.94703966 -1.26671958
C 4.02337837 1.29102957 -1.61801934
C 4.52858829 -0.08177997 -1.88584924
N 3.63853860 -1.01516962 -1.77563930
N 2.39278913 -0.48860982 -1.51487947
H 0.98281962 0.81671971 1.29281950
H 0.80376971 -0.92846966 1.04429960
H 0.17769994 0.20781992 -0.16382994
H 3.11369896 -0.31177989 0.54462975
H 1.87028933 1.62878931 -1.62635934
H 4.57466841 1.74949932 -0.79421973
H 4.10497856 1.90041924 -2.52083898
H 5.58314800 -0.26401991 -2.13256907
17
Properties=species:S:1:pos:R:3 REF_energy=-0.06535582196674161
C 2.87576890 -0.93968964 0.77244973
O 4.05839825 -0.49385980 0.12357996
C 4.24088860 0.91299969 0.28042990
C 5.55319786 1.29954958 -0.33591986
C 6.79573774 0.82202971 0.34376988
C 5.60709810 1.66901934 -1.79991937
O 5.61466789 2.66848898 -0.76829976
H 2.77102900 -2.01424909 0.59909976
H 1.99670923 -0.43200982 0.36295989
H 2.94302893 -0.76578975 1.85093927
H 4.24099874 1.17348957 1.34545958
H 3.40869856 1.43857956 -0.20366992
H 7.69205713 1.30868948 -0.05675998
H 6.91156721 -0.25744990 0.21043992
H 6.75492764 1.03324962 1.41802955
H 4.70933819 1.56541932 -2.39628911
H 6.52793741 1.50365937 -2.34606910
15
Properties=species:S:1:pos:R:3 REF_energy=-0.05593596350836605
C 1.03681958 1.66408932 0.51002979
C 2.36643910 1.81083930 0.56231976
C 3.26037884 0.85121971 -0.13446994
O 2.84919906 -0.08094997 -0.81410974
C 4.71613836 1.12841964 0.02134999
C 5.74670792 0.15629995 -0.50453979
C 5.53911781 1.47047949 -1.19896948
H 0.37763986 2.36239910 1.01410961
H 0.57707977 0.84493971 -0.03795999
H 2.81981897 2.62938881 1.10667968
H 4.98633814 1.63815939 0.94265962
H 5.40121794 -0.74212968 -1.00544965
H 6.65569735 0.01930999 0.06919997
H 6.30912781 2.22612929 -1.09934962
H 5.05559826 1.45228946 -2.16998935
13
Properties=species:S:1:pos:R:3 REF_energy=-0.045359750451307024
C 0.97187966 0.01843999 0.13682996
C 2.44738913 -0.09567996 -0.10473996
C 3.05003881 -1.26960957 -0.35687986
C 3.21370888 1.19396961 -0.04657998
O 2.63565898 2.25055909 0.18754992
C 4.64869833 1.24189949 -0.26227990
C 5.83605766 1.29537952 -0.43908983
H 0.50945979 0.67103970 -0.61107975
H 0.77626967 0.43216982 1.13164961
H 0.47232983 -0.95467961 0.07987997
H 2.47888923 -2.19280910 -0.39507985
H 4.11721849 -1.36012948 -0.53257984
H 6.88835716 1.35575950 -0.59415978
10
Properties=species:S:1:pos:R:3 REF_energy=-0.038921915452682865
C 0.99837959 -0.00491000 -0.00737000
C 2.50168920 0.03442999 0.00508000
C 3.22548866 -1.28472948 -0.00532000
O 3.11878896 1.09884953 0.01819999
H 0.60231978 1.01430964 0.00058000
H 0.63799977 -0.53032976 0.88066965
H 0.65215975 -0.51121980 -0.91265965
H 2.51222897 -2.11379910 0.01769999
H 3.86714864 -1.35212958 0.87739968
H 3.82385850 -1.36179948 -0.91703969
14
Properties=species:S:1:pos:R:3 REF_energy=-0.0509585291648984
C 2.61950922 -0.16858995 0.49866980
C 3.93788838 -0.89459968 0.69044971
O 4.64888811 -0.96844965 -0.55386978
C 5.43120766 0.10489997 -0.85164970
C 6.11887789 -0.11489996 -2.16489935
O 5.56832790 1.10344958 -0.16096993
H 2.04418921 -0.15645994 1.42898941
H 2.02208924 -0.65492976 -0.27981988
H 2.78258896 0.86464965 0.17551994
H 3.74704862 -1.92381930 1.01134968
H 4.54657841 -0.42231983 1.46957946
H 5.37706804 -0.29231989 -2.94805884
H 6.80564785 -0.96136963 -2.08571935
H 6.69144773 0.77931970 -2.42807913
10
Properties=species:S:1:pos:R:3 REF_energy=-0.029708222814407104
N -1.13254964 -0.00011000 0.00054000
C -0.33984986 1.11816955 0.00022000
C 0.97435963 0.70784974 -0.00014000
C 0.97438967 -0.70801973 -0.00004000
C -0.33996987 -1.11845958 0.00038000
H -2.14460921 -0.00014000 0.00084000
H -0.77817971 2.10672927 0.00028000
H 1.84005940 1.35720944 -0.00044000
H 1.84014928 -1.35760939 -0.00024000
H -0.77820975 -2.10713935 0.00059000
11
Properties=species:S:1:pos:R:3 REF_energy=-0.026739127673249596
O 0.96830958 -0.03296999 0.25545990
S 2.40974927 0.05982998 0.13652995
O 3.27051878 0.24730991 1.28761959
C 3.02244878 -1.32463944 -0.85575974
C 3.46655869 -0.67668974 -2.13273907
C 3.31249881 0.64533979 -2.13714910
O 2.77758884 1.19343960 -0.99635965
H 2.20598912 -2.03082919 -1.01855958
H 3.85694838 -1.79343927 -0.33048987
H 3.87082863 -1.23978949 -2.96296883
H 3.54869866 1.35188949 -2.91550875
13
Properties=species:S:1:pos:R:3 REF_energy=-0.04701229362049242
C 1.10127962 0.01666999 -0.66685975
C 2.04630923 -0.43889982 0.16583994
C 3.41295862 0.16900994 0.31171989
C 4.51104832 -0.83706963 0.02403999
O 4.36740875 -2.03357935 -0.20007992
C 5.92042780 -0.30091989 0.05349998
O 6.14925766 0.86833966 0.31864989
H 0.13392994 -0.47420985 -0.72686970
H 1.26272953 0.87968969 -1.30550945
H 1.82846928 -1.31101954 0.78106970
H 3.53461862 0.52550983 1.34018946
H 3.53288865 1.01648962 -0.37232986
H 6.69603729 -1.04792953 -0.17571993
13
Properties=species:S:1:pos:R:3 REF_energy=-0.04669808173284751
C 0.99999964 0.00000000 0.00000000
C 2.19015908 0.00000000 0.00000000
C 3.59615874 0.00000000 0.00000000
C 4.30562830 1.07280958 -0.37957987
C 5.76822805 1.17510962 -0.38224983
C 6.55378771 0.42017984 -1.42406940
O 6.47683764 1.84900928 -1.43425941
H -0.06519998 0.00208000 -0.00114000
H 4.10374832 -0.89994967 0.33421987
H 3.77714872 1.96685922 -0.70703977
H 6.20298767 1.25800943 0.60939974
H 6.02753782 -0.10954995 -2.20890903
H 7.49476719 -0.02795999 -1.12959957
15
Properties=species:S:1:pos:R:3 REF_energy=-0.05366558377272801
O 2.87692881 -0.91852963 -0.52583981
C 2.20689917 0.19513993 0.04004999
C 1.82904923 -0.10033996 1.42419958
C 1.51326942 -0.35031989 2.55664921
C 3.16417885 1.34361959 0.13767995
C 3.39617872 2.24119925 -1.05587959
C 2.67449880 2.77247882 0.15081994
H 3.24316883 -0.61358976 -1.37128949
H 1.32925951 0.43026984 -0.57106978
H 1.23832953 -0.57996976 3.55976868
H 4.03484869 1.10255957 0.74143970
H 2.81632900 2.07980919 -1.95752931
H 4.40646839 2.59208894 -1.23621953
H 3.19619894 3.47674870 0.78950971
H 1.60932946 2.95789886 0.06887998
11
Properties=species:S:1:pos:R:3 REF_energy=-0.033282103182969425
C 1.39650941 -0.55991977 0.72495967
C 2.28830910 -0.02705999 -0.12479995
C 3.05503893 1.28344953 0.00000000
C 2.69239902 2.07008910 1.15534949
N 2.40332913 2.69710898 2.07626915
C 4.47485828 1.02029967 0.00000000
N 5.60659790 0.81054974 0.00000000
H 0.92304963 -1.51200938 0.50030982
H 1.10935962 -0.08765997 1.66113937
H 2.50065899 -0.58947974 -1.03634965
H 2.81046891 1.86744928 -0.89699966
15
Properties=species:S:1:pos:R:3 REF_energy=-0.05898444066718178
O 1.16193950 -0.10204996 -0.57566983
C 2.53682899 -0.04219998 -0.23064992
C 2.76016879 1.22093952 0.54933977
C 3.25091887 1.24344945 1.79966938
C 3.61741877 -0.00295000 2.56070924
C 3.36120892 -1.27148950 1.79246926
C 2.87543893 -1.28638959 0.53827977
H 0.68540972 -0.28299987 0.25367990
H 3.12157893 -0.00968000 -1.15471959
H 2.51473927 2.15329909 0.04702998
H 3.39900875 2.19343925 2.30423903
H 4.67910814 0.04213998 2.82684898
H 3.04185891 -0.03016999 3.49215865
H 3.58959866 -2.20796919 2.29256916
H 2.71692896 -2.23310924 0.03023999
15
Properties=species:S:1:pos:R:3 REF_energy=-0.060071182419161095
C 0.65273976 0.13824995 -0.01010000
C 2.12549925 0.00442000 0.20199993
C 3.00122881 0.98474962 -0.05484998
C 4.44358826 0.77218974 0.18209994
N 5.31289768 1.70034933 -0.05659998
N 6.59855747 1.26205957 0.24413991
C 7.46103716 2.19042921 0.00240000
H 0.30856988 -0.61868978 -0.72125971
H 0.37894985 1.12338960 -0.40064985
H 0.12485995 -0.01290999 0.93627965
H 2.46758914 -0.95500970 0.58653980
H 2.70796895 1.95547926 -0.43783984
H 4.74057817 -0.21820992 0.57251978
H 8.53065681 2.00666928 0.18688993
H 7.18343735 3.18408871 -0.38866985
18
Properties=species:S:1:pos:R:3 REF_energy=-0.06903311956965097
C 1.01909959 0.02214999 -0.05511998
C 2.50703907 -0.05988998 -0.05118998
C 3.23014879 -0.75880969 -1.16507959
C 3.31790876 0.74812973 -1.04427958
C 4.59270811 1.47273946 -0.63052976
C 5.97190762 1.05243957 -1.08227956
N 5.32569790 2.21759915 -1.66011941
H 0.68871975 0.88234967 0.53580981
H 0.59119976 -0.88167965 0.39013988
H 0.61355978 0.12787995 -1.06659961
H 2.89892888 -0.17704993 0.95278966
H 2.65736890 -1.15996957 -1.99340928
H 4.10087872 -1.34987950 -0.90806967
H 2.73533893 1.30197942 -1.78235924
H 4.53483820 1.97993922 0.33143988
H 6.06437778 0.19225992 -1.73323929
H 6.80999756 1.23150957 -0.42155984
H 5.70516777 3.08266902 -1.27111948
17
Properties=species:S:1:pos:R:3 REF_energy=-0.0648276519583999
O 1.08750963 0.04801998 0.34742987
C 2.28835917 0.01775999 0.08146997
C 3.04830885 -1.28753960 0.00770000
C 3.99765849 -1.29603946 -1.18224955
C 4.89196825 -0.05877998 -1.20181966
C 4.05452824 1.21774948 -1.21704960
C 3.10588884 1.28540957 -0.02835999
H 2.33505917 -2.11375928 -0.08055997
H 3.59913850 -1.41019940 0.94628966
H 4.61674833 -2.19966936 -1.15268958
H 3.41705894 -1.33438957 -2.11251926
H 5.54911757 -0.06142998 -0.32371989
H 5.53663778 -0.08559997 -2.08745909
H 4.71377802 2.09292912 -1.21177948
H 3.47624874 1.25663960 -2.14874935
H 3.66086864 1.41082954 0.90726966
H 2.42940903 2.13917923 -0.14195995
18
Properties=species:S:1:pos:R:3 REF_energy=-0.07404231752759405
C 0.96942967 -0.05660998 -0.01740999
O 2.37707901 0.12478995 -0.00690000
C 2.85905910 1.47721946 -0.01844999
C 2.43209910 2.21665931 -1.29082942
C 2.41551900 2.24347925 1.23269951
C 4.38982821 1.35619950 -0.00721000
H 0.77088976 -1.13240957 -0.00392000
H 0.52148980 0.35280985 -0.92598969
H 0.50429982 0.37862986 0.87024963
H 2.65983891 1.62262940 -2.18361926
H 2.93616891 3.18598866 -1.37955952
H 1.35302949 2.40724897 -1.30363953
H 2.63160896 1.66818941 2.14032936
H 1.33673954 2.43393922 1.22724950
H 2.91865897 3.21411896 1.30733955
H 4.73062849 0.80749971 0.87889969
H 4.87653828 2.33690929 -0.01441999
H 4.74203825 0.78879970 -0.87665969
11
Properties=species:S:1:pos:R:3 REF_energy=-0.03053300884983945
N 1.04994965 -0.28101990 0.00000000
C 2.39446902 -0.03691998 0.00000000
C 3.05351877 1.13798952 0.00000000
C 2.35051918 2.35561895 0.00000000
C 1.75543928 3.38632870 0.00000000
C 4.45951843 1.13798952 0.00000000
N 5.61052799 1.13798952 0.00000000
H 0.69759971 -1.23238957 0.00000000
H 0.38962984 0.49039981 0.00000000
H 2.96301866 -0.96816963 0.00000000
H 1.22804952 4.31226873 0.00000000
22
Properties=species:S:1:pos:R:3 REF_energy=-0.09141167884718548
C 2.78916883 -0.32570988 -1.80228925
C 3.97828841 -0.07034997 -0.88699967
N 4.43942833 1.30607951 -1.05632961
C 5.51056814 1.68893933 -0.12531996
C 6.78752708 0.86739969 -0.32927987
C 5.79414797 3.20012879 -0.26299989
C 6.26229763 3.64658880 -1.64365935
H 2.45470905 -1.36316943 -1.70541930
H 3.05340886 -0.15367994 -2.85204911
H 1.94564927 0.32576987 -1.54974949
H 4.76961803 -0.77960974 -1.14908957
H 3.67749858 -0.25466990 0.15001994
H 3.65003848 1.94148922 -0.93583959
H 5.16109800 1.52673936 0.90327966
H 7.09936714 0.85277969 -1.37849939
H 6.64723778 -0.16996995 -0.00709000
H 7.61205721 1.27810955 0.26316988
H 6.55490780 3.49028873 0.47400981
H 4.88920832 3.76355863 -0.00315000
H 7.20135689 3.16156888 -1.92657936
H 6.43434763 4.72760820 -1.64719939
H 5.51383781 3.42788863 -2.41201925
21
Properties=species:S:1:pos:R:3 REF_energy=-0.0859673263072076
C 0.96795964 -0.01867999 -0.08849997
C 2.48380923 0.03826999 0.01428000
C 2.99578881 1.47794950 -0.04191998
C 4.52337837 1.52870941 0.06643997
C 5.05641842 2.96473885 0.02858999
C 6.56808758 3.00426888 0.20806994
O 4.72822809 3.57626867 -1.21628952
H 0.62429976 -1.05708957 -0.04994998
H 0.62186974 0.41893986 -1.03020966
H 0.49830979 0.52553982 0.73690975
H 2.92167878 -0.54443979 -0.80462968
H 2.79858875 -0.43320984 0.95256960
H 2.55149913 2.05769920 0.77626967
H 2.67137909 1.94225931 -0.98071963
H 4.95243788 0.95503962 -0.76475972
H 4.83907843 1.04474962 0.99849963
H 4.58566856 3.55883884 0.81956965
H 7.07368755 2.44681907 -0.58800983
H 6.86458731 2.58304906 1.17327952
H 6.93214750 4.03562832 0.14983995
H 5.13551807 3.04866886 -1.92461920
16
Properties=species:S:1:pos:R:3 REF_energy=-0.05664416594126864
C 0.45879984 -0.57952976 -0.03845998
C 1.92777932 -0.29944989 -0.34513986
C 2.70243907 -1.62390935 -0.48900983
N 4.13012838 -1.39565945 -0.73339975
O 2.02343917 0.40715986 -1.60249949
C 1.85590935 1.75101936 -1.53568947
O 1.60939944 2.41262913 -0.54157978
H -0.10507996 0.35325986 0.06298998
H 0.35007989 -1.14901960 0.88960969
H -0.01001000 -1.14209962 -0.85330969
H 2.37667918 0.29297990 0.46283981
H 2.30180907 -2.19913912 -1.33181953
H 2.59320903 -2.22693920 0.41847986
H 4.22813845 -0.80739969 -1.56165934
H 4.58029842 -2.28223920 -0.95622963
H 1.97059929 2.17329907 -2.54630899
17
Properties=species:S:1:pos:R:3 REF_energy=-0.06370978133934613
C 1.70471931 -0.15688995 1.31003952
C 2.32804918 0.16776992 -0.03810998
C 3.34591889 1.26290953 0.07755998
C 3.54377866 2.23251915 -1.05642962
C 2.90300894 2.70223904 0.22826992
C 3.64423871 3.61737847 1.12768960
O 3.21113896 4.73325825 1.38216949
H 1.00265968 -0.99020964 1.21455956
H 1.15867949 0.70559973 1.70541930
H 2.47024918 -0.43257985 2.04175925
H 1.53542948 0.44109982 -0.74514973
H 2.81751895 -0.72862971 -0.43741983
H 4.23042870 0.93246967 0.61200976
H 2.90849876 2.15436935 -1.93199933
H 4.55412817 2.55632925 -1.28063953
H 1.83562934 2.89962888 0.19567993
H 4.59504795 3.24936891 1.54911935
19
Properties=species:S:1:pos:R:3 REF_energy=-0.07461362700446483
C 0.92556965 -0.15027994 -0.28263989
C 2.43116903 -0.18989994 -0.07768998
C 3.01013875 1.21423960 0.09620997
C 4.50731802 1.19575953 0.25520989
C 5.07340813 0.54883981 1.48006940
C 5.39079809 1.37804949 -0.96008968
O 5.12156820 2.45797896 -0.05450998
H 0.53012979 -1.16614950 -0.38633984
H 0.66667974 0.40871984 -1.18770945
H 0.42574984 0.32280988 0.56871980
H 2.90286875 -0.68513978 -0.93417966
H 2.65288901 -0.80055970 0.80443972
H 2.56171894 1.69530940 0.97503966
H 2.73092890 1.82905936 -0.77019972
H 6.12449741 0.81857973 1.63462937
H 5.01985788 -0.54106981 1.39552951
H 4.51658821 0.85333967 2.37290907
H 4.93387794 1.42339957 -1.94064927
H 6.38829803 0.95683962 -0.95116961
18
Properties=species:S:1:pos:R:3 REF_energy=-0.06863188241737106
N 1.01926959 -0.00710000 -0.07037997
C 2.47852921 -0.07938997 -0.06582997
C 3.17417884 -0.72858971 -1.21865952
C 3.26114869 0.76948971 -1.04438961
C 4.54154825 1.49298942 -0.63079977
C 5.92366743 0.99961960 -0.98602962
C 5.38736773 2.23680925 -1.63772941
H 0.69648975 0.76555973 0.51134980
H 0.61614978 -0.85290968 0.33168989
H 2.92410874 -0.23030992 0.91526961
H 2.57702923 -1.10185957 -2.04292917
H 4.04867840 -1.32957947 -1.00168967
H 2.64978909 1.34795952 -1.73971939
H 4.45774794 1.98673928 0.33883989
H 6.01993752 0.11226996 -1.60055935
H 6.70628786 1.11164951 -0.24489990
H 5.80402756 3.19212866 -1.34119940
H 5.10916805 2.17847919 -2.68373895
15
Properties=species:S:1:pos:R:3 REF_energy=-0.056898786171455384
C 0.83822972 -0.31562987 -0.00320000
C 2.35323906 -0.32019988 0.10913996
O 2.90429902 -0.98516965 -1.01632965
C 2.86114883 1.10536969 0.21969992
N 3.24075866 1.75432932 -0.83556968
N 3.62429881 3.04721904 -0.49918979
C 4.01017857 3.69672871 -1.54552948
H 0.37587988 0.18797994 0.85139966
H 0.45452982 -1.33935940 -0.06055998
H 0.51480979 0.19650993 -0.91656965
H 2.66159892 -0.85995972 1.00903964
H 2.97911882 -0.30931991 -1.71763933
H 2.83961892 1.56764948 1.22240961
H 4.34845829 4.73971844 -1.44922936
H 4.02095842 3.25767875 -2.55734897
15
Properties=species:S:1:pos:R:3 REF_energy=-0.0528705046077933
C 1.07061958 -0.01438999 0.06503998
N 2.52746892 0.00787000 -0.01202000
C 3.08699894 1.02314961 0.91658968
C 4.17440844 -0.00696000 1.27886951
C 3.12018895 -1.06075966 0.85739970
C 3.62800860 -2.19108915 0.09961996
N 4.03390837 -3.11326885 -0.47661981
H 0.68113971 -0.87815964 -0.48432982
H 0.65979975 0.88372970 -0.40851983
H 0.68323976 -0.06280998 1.08969963
H 2.44888902 1.30313957 1.76459932
H 3.45096874 1.93409932 0.43279985
H 5.06657791 0.04839998 0.64251971
H 4.48283863 -0.02520999 2.32743931
H 2.48767924 -1.37039948 1.70145941
12
Properties=species:S:1:pos:R:3 REF_energy=-0.03156050081238693
O 2.27862930 -0.54404980 -1.31558943
C 2.37002921 -0.03495999 0.00686000
C 2.87177873 1.35246944 0.00339000
C 2.15315938 2.52451897 -0.00719000
O 2.99710894 3.58563852 0.00684000
N 4.30521822 3.12952900 0.01927999
C 4.21150827 1.79774928 0.00221000
H 1.92878926 -1.44803941 -1.24761951
H 3.04080892 -0.68374974 0.58034980
H 1.37654960 -0.08525997 0.46537980
H 1.10102952 2.76688910 -0.02361999
H 5.12006807 1.21207952 -0.00631000
14
Properties=species:S:1:pos:R:3 REF_energy=-0.04808704789492291
O 0.91550970 0.25126991 0.44259983
C 2.28753901 0.07083998 -0.02670999
C 3.33985877 0.95859963 0.71076971
N 3.45208883 -0.11892995 1.72801936
C 3.05832887 -1.09172964 0.67586970
C 2.37016892 0.08617996 -1.59149945
O 3.38020873 -0.04072998 -2.28626919
H 1.01412964 0.22116992 1.41447949
H 2.96668887 1.90747929 1.10661960
H 4.26547813 1.14621949 0.15339994
H 4.39324808 -0.25448990 2.09992933
H 3.90168858 -1.50309944 0.10828996
H 2.44145918 -1.91761935 1.04148960
H 1.39556956 0.22846992 -2.08787918
13
Properties=species:S:1:pos:R:3 REF_energy=-0.046545991614988624
C 0.99999964 0.00000000 0.00000000
C 2.44399905 0.00000000 0.00000000
C 3.63415861 0.00000000 0.00000000
C 5.04015779 0.00000000 0.00000000
C 5.70463800 -1.16424954 0.00000000
C 5.77362776 1.22278965 0.00000000
C 6.38621759 2.25599909 0.00000000
H 0.60597974 1.02086961 0.01167999
H 0.60597974 -0.52055979 0.87824970
H 0.60597974 -0.50031978 -0.88992965
H 5.18120813 -2.11509919 0.00000000
H 6.78975725 -1.19736946 0.00000000
H 6.92449713 3.17486882 0.00000000
18
Properties=species:S:1:pos:R:3 REF_energy=-0.07184699625481672
C 2.91030908 -0.92794967 -0.57389975
O 3.18283892 0.39828986 -1.00736964
C 3.87995863 1.14410961 -0.00328000
C 4.11214828 2.56835914 -0.51437980
N 4.80145836 3.37439871 0.50233984
C 6.21342754 3.61010861 0.21300991
C 5.18705797 4.69356823 0.00874000
H 2.36192918 -1.44319940 -1.36696959
H 2.29141927 -0.91814971 0.32846987
H 3.84334850 -1.46775949 -0.38602987
H 4.83796787 0.65452975 0.20853993
H 3.27942872 1.16567957 0.91396964
H 3.13748884 3.02246881 -0.73708969
H 4.64385796 2.52507901 -1.47579956
H 6.65763760 3.14734888 -0.65812975
H 6.86431742 3.68686867 1.07527959
H 5.14118767 5.49725819 0.73443973
H 4.91526794 4.96851826 -1.00298965
17
Properties=species:S:1:pos:R:3 REF_energy=-0.05952611639141292
C 1.06620955 -0.07914997 0.04282998
C 2.57347918 0.07689997 0.03206999
S 3.05798888 1.79449928 -0.00403000
O 2.63712883 2.34895897 -1.27633941
O 2.65083909 2.39843917 1.24992955
C 4.84026814 1.69646943 -0.01215000
C 5.47614813 3.07168865 -0.03940998
H 0.79355967 -1.13857961 0.06570997
H 0.61672980 0.37019986 -0.84842968
H 0.62559980 0.40611985 0.91955966
H 3.00109887 -0.40400985 -0.85256970
H 3.01016879 -0.36892983 0.93051964
H 5.13383818 1.12214959 -0.89571965
H 5.14370823 1.15303957 0.88743967
H 5.17250824 3.62917852 -0.93121964
H 6.56699705 2.98638892 -0.04480998
H 5.18367815 3.65892863 0.83688968
17
Properties=species:S:1:pos:R:3 REF_energy=-0.06696131810499018
C 2.45049906 -0.61231977 1.40779948
C 2.56146908 -0.04614998 -0.00093000
C 3.01469898 1.39698946 0.00000000
C 2.17727923 2.45248914 -0.03388999
C 0.68200976 2.43117905 -0.02363999
C 4.39715815 1.65321946 0.00000000
C 5.56738806 1.87010920 0.00000000
H 2.12666941 -1.65737939 1.36913943
H 1.71979940 -0.05466998 2.00320935
H 3.41329861 -0.57761973 1.92858922
H 1.60124946 -0.15789995 -0.51635981
H 3.26999855 -0.65371978 -0.57880980
H 2.60498905 3.45569849 -0.05590998
H 0.26181990 1.43730938 0.14343995
H 0.29908988 2.81305909 -0.97449958
H 0.31391990 3.08011889 0.77718967
H 6.61425734 2.06528926 0.00010000
20
Properties=species:S:1:pos:R:3 REF_energy=-0.08055204225916968
C 1.80319929 0.75587976 -1.09881961
C 3.29238868 1.00852966 -0.92062968
N 3.49877858 2.29734921 -0.25670990
C 4.93709850 2.56926894 -0.08899996
C 5.19514799 3.96234846 0.52041978
C 4.78761816 5.10363817 -0.40429986
O 4.48784828 4.08862829 1.75782943
H 1.64054930 -0.21399991 -1.57976949
H 1.34519958 1.52569938 -1.72900939
H 1.28238952 0.74563968 -0.13551995
H 3.77305865 1.00423968 -1.90547931
H 3.72668839 0.19715993 -0.32487988
H 3.07616901 2.25029922 0.67157978
H 5.45588779 2.49942899 -1.05247962
H 5.35934782 1.81135929 0.58226979
H 6.26302767 4.05310869 0.74820971
H 3.71048856 5.09617805 -0.60311979
H 5.32128763 5.05181837 -1.35784948
H 5.00865793 6.06759787 0.06699997
H 3.54506874 4.14921856 1.52207947
19
Properties=species:S:1:pos:R:3 REF_energy=-0.0766457700164298
C 1.80339932 -0.75915974 0.24629991
N 3.16731882 -0.56364983 -0.26512992
C 3.37806869 -1.49651945 -1.38250947
N 3.46118879 0.73162967 -0.55382979
C 4.58901834 1.17260957 -0.07576997
C 5.56148815 0.35879984 0.74718970
C 4.98269796 2.59215903 -0.39781985
H 1.63797939 -0.12389996 1.12363958
H 1.64886940 -1.79451942 0.56893981
H 1.04792953 -0.50408983 -0.50545979
H 3.22787881 -2.53299904 -1.06142950
H 4.40859842 -1.42260945 -1.74702942
H 2.70556903 -1.28222954 -2.22066927
H 6.07734776 -0.35337988 0.09749997
H 5.03899813 -0.17779994 1.54327941
H 6.30518723 1.01495957 1.20773959
H 4.19812822 3.09215879 -0.97236961
H 5.90616798 2.58509898 -0.98313963
H 5.14933825 3.14237881 0.53214979
15
Properties=species:S:1:pos:R:3 REF_energy=-0.053922626892824344
O 1.02336967 0.17603993 0.04597998
C 2.46427894 0.09863997 0.11485996
C 3.14696884 0.91222966 1.22032952
N 3.78383851 -0.28888988 1.69154942
C 3.07016897 -1.14132965 0.78103971
C 5.15090799 -0.33166990 1.66103947
N 5.97181797 0.55613983 2.10431910
H 0.76508969 -0.47734982 -0.62679976
H 2.89642882 0.29848990 -0.87431967
H 2.47446918 1.32701945 1.97707927
H 3.82247853 1.69272935 0.85922968
H 3.69222856 -1.75704932 0.12452996
H 2.35667920 -1.77872932 1.31243944
H 5.56128836 -1.26394951 1.23452961
H 5.43428802 1.32318962 2.51902914
18
Properties=species:S:1:pos:R:3 REF_energy=-0.06842929050289515
C 3.27879882 -1.30154955 -0.31450987
C 2.53676891 -0.02888999 0.05818998
O 1.97993922 -0.18813993 1.36099946
C 3.44981885 1.16386962 0.08025996
C 3.42538881 2.18377924 -1.03519964
N 2.84162903 2.48669910 0.26911989
C 3.66301870 3.38691854 1.07492948
H 3.72989869 -1.22037959 -1.30807948
H 2.59810901 -2.15928912 -0.30431989
H 4.07346869 -1.52011943 0.40745986
H 1.70439935 0.12086996 -0.63978976
H 1.63779938 0.69589972 1.59485936
H 4.38189840 0.96543968 0.59685975
H 2.71856904 2.05495906 -1.84616935
H 4.35409832 2.66651893 -1.31466949
H 3.44437885 3.22976875 2.13625908
H 3.41206884 4.42519855 0.83431971
H 4.74364805 3.26208878 0.93314964
13
Properties=species:S:1:pos:R:3 REF_energy=-0.03744428825775925
N 1.03656960 -0.03449999 -0.12657996
C 2.36580920 0.09770997 -0.06836998
C 3.19688869 1.19246960 -0.02024999
C 4.50717831 0.67661971 0.03528998
N 5.64323759 1.38794947 0.09225997
C 4.39597845 -0.69192970 0.02106999
O 3.08497882 -1.05254960 -0.04200999
H 0.43510985 0.73848969 0.13461994
H 0.64793974 -0.95158964 0.06865998
H 2.88730907 2.22642922 -0.02767999
H 5.65426779 2.39789915 -0.01058000
H 6.55870771 0.95461965 0.02052999
H 5.10239792 -1.50805938 0.04841998
14
Properties=species:S:1:pos:R:3 REF_energy=-0.048592658545962175
C 1.20727956 0.01289999 0.03555999
N 2.66039896 -0.21569993 0.08747997
C 2.90469885 -1.64776945 -0.15656994
N 3.37472868 0.62323982 -0.71565974
C 4.39356804 1.13364959 -0.11097996
C 5.17329788 2.02396917 -0.92998964
N 5.83305788 2.74802899 -1.55590940
H 0.98472965 1.05781960 0.27894992
H 0.68555975 -0.60491979 0.77461970
H 0.79904974 -0.19951992 -0.95896965
H 2.38289905 -2.26614928 0.58192974
H 3.97341847 -1.86868930 -0.05922998
H 2.58566904 -1.94633925 -1.16145957
H 4.69738817 0.95079964 0.93195963
18
Properties=species:S:1:pos:R:3 REF_energy=-0.06964485543861754
C 1.57761943 -0.13419995 0.29168990
O 2.98177886 0.06019998 0.38706985
C 3.35290861 1.38365948 -0.01333999