19
Properties=species:S:1:pos:R:3 REF_energy=-0.07502012491950927
C 2.30817890 -0.45705983 -1.49677944
C 2.45978904 0.03264999 -0.06580997
C 3.25824881 1.32823944 -0.02455999
C 2.55439901 2.61422920 -0.53048980
C 3.25686884 3.37089872 0.61302978
C 3.34372878 2.02309918 1.36692953
O 4.54197836 1.78631938 2.12676930
H 1.75188935 -1.39906943 -1.51964939
H 3.28600883 -0.62525976 -1.95946932
H 1.76883936 0.27276990 -2.10879922
H 2.97390890 -0.73529971 0.52367979
H 1.46743941 0.17129993 0.37896985
H 4.25247812 1.19321954 -0.47586983
H 1.46196949 2.60072923 -0.43826985
H 2.82085896 2.93404889 -1.54121935
H 4.22882843 3.79462862 0.33567986
H 2.65687919 4.14594841 1.09708965
H 2.46241903 1.84385931 1.99615932
H 5.27825832 1.97188926 1.51966941
13
Properties=species:S:1:pos:R:3 REF_energy=-0.0461889240036546
C 1.00157964 -0.21474993 0.00282000
C 2.48757887 -0.03947999 0.00312000
C 3.13901877 1.13798952 0.00000000
C 2.43601918 2.35561895 0.00000000
C 1.84093940 3.38632870 0.00000000
C 4.54501867 1.13798952 0.00000000
C 5.73517752 1.13798952 0.00000000
H 0.75515974 -1.28169954 -0.02305999
H 0.54789978 0.24830991 -0.87935966
H 0.55507982 0.20454992 0.90998966
H 3.06490898 -0.96214962 0.00597000
H 1.31123948 4.31014872 0.00000000
H 6.80011749 1.14149952 0.00000000
12
Properties=species:S:1:pos:R:3 REF_energy=-0.039765790478951346
C 2.74081898 -1.23520958 0.43991983
C 2.25524926 -0.01649999 0.16832994
C 3.03814888 1.17278957 0.09911996
C 2.59811902 2.46325898 -0.17021994
N 3.55233860 3.46233869 -0.18412994
C 4.72408819 2.93182874 0.07532997
S 4.74756813 1.24318957 0.34465986
H 2.07228923 -2.09039927 0.47346982
H 3.78850865 -1.43476939 0.63526976
H 1.18649960 0.08064996 -0.01330000
H 1.56686938 2.73184896 -0.36738986
H 5.62876797 3.52416873 0.11790996
19
Properties=species:S:1:pos:R:3 REF_energy=-0.07622731415096595
C 0.96641964 0.00225000 -0.05304998
C 2.50782895 -0.00056000 -0.00226000
C 2.95705891 -0.00139000 1.46095943
C 3.06426907 -1.22292948 -0.76829976
C 3.33233881 -0.67021978 -2.13239932
C 3.33420873 0.66660976 -2.13237929
C 3.06868887 1.21998966 -0.76824969
H 0.59265977 0.00382000 -1.08292961
H 0.55945981 0.88724965 0.44884986
H 0.55632979 -0.88215965 0.44732982
H 4.04971838 -0.00416000 1.54116940
H 2.58330894 -0.88665968 1.98701918
H 2.58788896 0.88602966 1.98664927
H 2.34471917 -2.04701924 -0.80850965
H 3.99917841 -1.59851944 -0.33741990
H 3.53367877 -1.28674948 -2.99731898
H 3.53826880 1.28229952 -2.99723887
H 4.00499868 1.59212935 -0.33729988
H 2.35216928 2.04672933 -0.80828971
16
Properties=species:S:1:pos:R:3 REF_energy=-0.05888113847519216
C 1.05332959 0.29750988 -0.74495971
C 2.45430899 0.88442963 -0.81240970
C 2.65234900 1.95525932 0.21629992
N 3.18057871 1.62507939 1.53766942
C 4.04516840 2.37314892 0.61408979
C 4.30141830 3.78108859 0.99078959
O 4.70409822 4.58538818 0.15951994
H 0.92948967 -0.48176983 -1.50285935
H 0.29731989 1.06923962 -0.92179966
H 0.85884970 -0.14339995 0.23769991
H 2.61544919 1.31628954 -1.80727923
H 3.18944883 0.07905997 -0.69156969
H 1.88915920 2.72532892 0.17495994
H 3.46883869 0.64584976 1.58467948
H 4.89095783 1.83836937 0.19837992
H 4.12774849 4.06176853 2.04307938
12
Properties=species:S:1:pos:R:3 REF_energy=-0.04623303265311318
C 1.13636959 -0.03925999 0.15620995
N 2.41826916 -0.04463998 0.31471989
N 3.00168872 1.13232958 -0.02534999
C 4.46623802 1.15369952 0.00814000
C 4.95750856 2.48276901 -0.38184988
C 5.36227798 3.56849861 -0.69931978
H 0.55539978 -0.94204962 0.40170985
H 0.56952977 0.82835966 -0.22483991
H 2.66378903 1.90121925 0.55823976
H 4.86232805 0.39758986 -0.67883974
H 4.81965828 0.90867960 1.01620960
H 5.72176790 4.52992868 -0.98582959
17
Properties=species:S:1:pos:R:3 REF_energy=-0.06497154369185099
C 2.30334926 -0.45947984 -1.50824940
C 2.39334917 0.06383997 -0.08388997
C 3.25228882 1.32077956 -0.02627999
C 2.64772916 2.62061906 -0.64084977
C 3.16372895 3.34732890 0.61822975
O 3.37853861 4.50748825 0.89781970
C 3.32758880 2.01019931 1.36991954
H 1.70441937 -1.37484944 -1.54029942
H 3.29770875 -0.68685979 -1.90631926
H 1.83732927 0.27630988 -2.17139912
H 2.83177900 -0.71131974 0.55500978
H 1.38496947 0.26481989 0.29590988
H 4.26109838 1.11981952 -0.41769984
H 1.55715942 2.64418912 -0.72566968
H 3.10553885 2.94843888 -1.57631946
H 4.27872801 1.89538932 1.89392936
H 2.49584913 1.80235934 2.04945922
12
Properties=species:S:1:pos:R:3 REF_energy=-0.03943025743729933
N 0.99999964 0.00000000 0.00000000
C 2.15100908 0.00000000 0.00000000
C 3.55700850 0.00000000 0.00000000
C 4.33528805 -1.07953966 -0.06686997
C 5.75802803 -0.67012978 -0.03978999
O 5.75116777 0.76783973 -0.04329998
C 4.38896799 1.22157955 0.07902997
H 4.00044870 -2.10569930 -0.12678996
H 6.26353788 -1.02018964 0.86493963
H 6.30183744 -1.02186966 -0.92153960
H 4.18332815 1.92253923 -0.73531973
H 4.27876854 1.73378932 1.03968954
15
Properties=species:S:1:pos:R:3 REF_energy=-0.057078453035213306
O 2.23197937 -0.37811986 1.39555943
C 2.45580888 -0.01974999 0.04247998
C 2.99270892 1.35949957 0.00326000
C 4.13733864 1.79374933 -0.52819979
C 4.25874853 3.25624895 -0.32880986
O 3.01113892 3.67581868 0.24979991
C 2.25565910 2.49976921 0.60253978
H 1.95625925 -1.31004953 1.39604950
H 1.50792944 -0.07879997 -0.50114983
H 3.15818882 -0.73486972 -0.39801985
H 4.88091850 1.18568957 -1.01912963
H 5.07317781 3.50615883 0.35736987
H 4.40097809 3.78695846 -1.27415955
H 1.24738955 2.60410905 0.19165993
H 2.20373917 2.43210888 1.69335938
15
Properties=species:S:1:pos:R:3 REF_energy=-0.05605665668690163
C 0.99999964 0.00000000 0.00000000
C 2.19015908 0.00000000 0.00000000
C 3.59615874 0.00000000 0.00000000
C 4.34597874 -1.10460961 -0.07331997
C 5.80320787 -0.78239971 -0.05570998
C 5.81929779 0.72312975 -0.32011986
C 4.43658829 1.23511946 0.08093997
H -0.06489997 -0.00190000 -0.00017000
H 3.96245837 -2.11417913 -0.12311995
H 6.23600769 -1.02558959 0.92072964
H 6.35159779 -1.32361948 -0.83270967
H 5.98537779 0.90838963 -1.38916957
H 6.62195778 1.23042953 0.22417991
H 4.09709835 2.02063918 -0.60162979
H 4.44024849 1.62939930 1.10339952
13
Properties=species:S:1:pos:R:3 REF_energy=-0.04121044580920308
C 1.09608948 0.00142000 -0.12723996
N 2.51593900 0.02006999 0.11672995
N 3.21637869 -1.15408945 0.27963990
C 4.44508839 -0.80648971 0.48340982
C 4.67882824 0.66911972 0.47530985
C 3.29276872 1.17232955 0.21627992
O 2.95280886 2.33886909 0.11994995
H 0.71346974 1.01832962 -0.24686991
H 0.59902972 -0.47691983 0.72101974
H 0.90154964 -0.57081980 -1.03832960
H 5.26920795 -1.51304936 0.65159976
H 5.04942799 0.99798965 1.44729948
H 5.36081791 0.93913966 -0.33230987
15
Properties=species:S:1:pos:R:3 REF_energy=-0.056777598756710734
C 0.88936967 0.06465998 0.06044998
C 2.39949918 -0.03216999 0.00644000
C 3.18759894 0.93845963 0.89447969
O 4.01435852 -0.14554994 1.39119947
C 3.05612874 -1.11743951 0.88283962
C 3.73840857 -2.18004918 0.18113995
C 4.29944801 -3.06846881 -0.40046984
H 0.43183985 -0.78161967 -0.46240982
H 0.54503983 0.98400968 -0.42373985
H 0.51824981 0.06551997 1.09054959
H 2.75809908 -0.02229999 -1.03161955
H 2.63362908 1.41375947 1.71047926
H 3.77558851 1.68851948 0.35888988
H 2.42808914 -1.48072946 1.70591927
H 4.80369854 -3.85527849 -0.91245967
13
Properties=species:S:1:pos:R:3 REF_energy=-0.044679217767380486
C 0.99999964 0.00000000 0.00000000
C 2.19015908 0.00000000 0.00000000
C 3.63415861 0.00000000 0.00000000
C 4.20418835 -1.19230950 -0.75600970
C 4.51006842 -0.53923976 -2.06362939
N 4.47313833 0.75207973 -2.06603909
N 4.16962862 1.11086953 -0.79178971
H -0.06585998 0.00534000 -0.00512000
H 4.01801872 0.03492999 1.02454960
H 3.51006866 -2.02479935 -0.89846969
H 5.14476776 -1.55578935 -0.33056989
H 4.77319813 -1.14156961 -2.94397879
H 3.58555865 1.94663930 -0.74616975
15
Properties=species:S:1:pos:R:3 REF_energy=-0.05494416250720979
C 1.11299968 -0.40198985 0.36722985
C 2.41567922 0.19257993 -0.15365994
O 2.95368886 -0.72247970 -1.11323965
C 2.20102906 1.54373944 -0.78442973
C 2.09535909 1.79464936 -2.10022926
C 2.12879920 2.70452905 0.14109994
O 2.26282907 2.59065914 1.35314953
H 0.65403974 0.22939992 1.13451958
H 1.29376948 -1.39322948 0.79829973
H 0.39009985 -0.54397976 -0.44502982
H 3.14283895 0.25567991 0.66368973
H 3.85508847 -0.41582984 -1.31121945
H 2.13519907 0.98357964 -2.82329893
H 1.94860923 2.79305911 -2.50010896
H 1.95331931 3.68744874 -0.32802987
17
Properties=species:S:1:pos:R:3 REF_energy=-0.06623650882653598
C 1.01826966 -0.16550994 0.09177997
C 2.53527927 -0.07214998 -0.06544998
N 2.96295905 -0.87041968 -1.22197950
C 2.97831893 1.39414954 -0.21516992
C 4.49610806 1.55940950 -0.28454989
O 5.01838827 0.99446958 -1.47993946
H 0.68581975 0.39608985 0.97169960
H 0.69971979 -1.20575953 0.22341992
H 0.49679983 0.24012990 -0.78269970
H 3.00524902 -0.49353981 0.83086967
H 2.45147920 -0.55855978 -2.05175924
H 2.67275906 -1.84058928 -1.08247960
H 2.60584903 1.97031927 0.64049977
H 2.52759886 1.82274926 -1.11955965
H 4.98613787 1.08204961 0.57036978
H 4.75930834 2.62162900 -0.27662992
H 4.58589792 0.11565995 -1.56518936
14
Properties=species:S:1:pos:R:3 REF_energy=-0.046634230845316926
C 0.99753958 0.02409999 -0.11757996
C 2.49943900 -0.03055999 0.08864997
C 3.14285874 -1.23980963 -0.55306983
C 4.04115868 -0.87592971 -1.47125947
N 4.09350872 0.47702983 -1.55165935
C 3.21072888 1.08610952 -0.67579979
O 3.04187894 2.28808928 -0.55399978
H 0.58256978 0.94080967 0.31598991
H 0.50474977 -0.83058965 0.35818988
H 0.73296970 0.01970999 -1.18159950
H 2.76729894 0.02643999 1.14815962
H 2.90705895 -2.25979900 -0.28570989
H 4.66276836 -1.50670946 -2.09097910
H 4.68536806 1.00995958 -2.17396903
15
Properties=species:S:1:pos:R:3 REF_energy=-0.05587621452448632
N 2.76636887 -1.09806955 -0.47619981
C 2.12737918 0.04339998 0.16805995
C 3.12276888 1.17144954 0.25980991
O 4.26854801 0.89533961 1.08865964
C 3.39777875 2.03765917 -0.93918961
C 2.66176915 2.60370922 0.24432991
H 2.22956920 -1.94044924 -0.28653991
H 3.68398881 -1.22950959 -0.04728998
H 1.80405927 -0.23309991 1.17755961
H 1.23934960 0.33432987 -0.40202984
H 4.03815842 0.95957965 2.03027940
H 2.84109879 1.84019923 -1.84761930
H 4.42131853 2.35102916 -1.10772955
H 3.18757868 3.32082868 0.86345965
H 1.60485935 2.80978894 0.12559995
15
Properties=species:S:1:pos:R:3 REF_energy=-0.05743801033588891
C 1.14493954 -0.24972990 -0.02264999
C 2.65894890 -0.18679993 -0.08052997
O 3.05738878 1.17583954 0.12840995
C 4.38995838 1.41783953 0.09968996
N 5.28424788 0.51225978 -0.10775996
N 6.56245756 1.06422961 -0.07950997
C 7.45286703 0.15966994 -0.31156987
H 0.79106975 -1.27438962 -0.16709994
H 0.70291978 0.38894984 -0.79477972
H 0.77976972 0.11820996 0.94207966
H 3.00478888 -0.52814978 -1.06247962
H 3.08476877 -0.82027966 0.70539975
H 4.59350824 2.48634911 0.27522987
H 8.51948643 0.43130982 -0.32422987
H 7.20250702 -0.89760965 -0.50371981
13
Properties=species:S:1:pos:R:3 REF_energy=-0.04942803093041115
C 1.66213930 -0.38980985 -1.24249959
C 2.14119935 0.25733992 -0.16966994
C 3.23012877 1.30038953 -0.14830993
O 3.72457838 1.59230947 -1.47867954
C 3.54582882 2.95439887 -1.52772939
C 2.99280906 3.44437885 -0.43800986
O 2.71684885 2.48748922 0.50800985
H 0.86877966 -1.12360954 -1.14139950
H 2.04391909 -0.19877993 -2.24118900
H 1.71655941 0.02715999 0.80449969
H 4.07277870 0.92700964 0.44755983
H 3.85647869 3.44859862 -2.42922902
H 2.72176886 4.45584822 -0.19400991
14
Properties=species:S:1:pos:R:3 REF_energy=-0.04130159188770777
C 0.98258960 0.03190999 0.02099999
N 2.44923902 -0.00792000 0.05375998
C 3.09162879 0.99392962 0.96454960
C 4.25520849 0.03589999 1.28782952
S 3.15663886 -1.29613948 0.90470964
O 2.32960892 -1.65408933 2.03311920
O 3.72029877 -2.23786926 -0.02895999
H 0.60145974 -0.81716967 -0.55334979
H 0.66051972 0.94904965 -0.48160982
H 0.54389977 0.02181999 1.02260959
H 2.47335911 1.25724947 1.83134925
H 3.38059878 1.91150928 0.44465983
H 5.10607815 0.09059997 0.60286981
H 4.60150814 0.04775998 2.32360911
17
Properties=species:S:1:pos:R:3 REF_energy=-0.06843837078372772
C 2.50432897 -0.30597988 -1.70405936
C 2.78245878 0.06947997 -0.25543991
N 3.33548880 1.42669952 -0.12027996
C 2.33531904 2.49285913 -0.06972997
C 4.69978857 1.66608930 -0.08906997
N 5.07493830 2.93284869 0.23590991
S 5.93004751 0.58541977 -0.41731986
H 2.10687923 -1.32415950 -1.76015925
H 3.41232872 -0.26049989 -2.31268930
H 1.76992929 0.36830986 -2.15546918
H 3.46615863 -0.66074973 0.18807994
H 1.85641921 0.01888999 0.32934991
H 1.87556934 2.48540926 0.92275965
H 1.56636941 2.30907917 -0.82537973
H 2.76171899 3.47899866 -0.26470992
H 4.50554848 3.46239877 0.87876970
H 6.07379770 3.07672882 0.33352989
9
Properties=species:S:1:pos:R:3 REF_energy=-0.027962924033595238
C 0.95470965 -0.04296998 0.00000000
C 2.29142904 -0.02062999 0.00000000
C 3.01317883 1.20192945 0.00000000
C 3.62385869 2.23600936 0.00000000
C 4.39948845 3.55837870 0.00000000
N 4.98637819 4.55921793 0.00000000
H 0.41783985 -0.98633963 0.00000000
H 0.36370987 0.86806971 0.00000000
H 2.85336900 -0.95046967 0.00000000
17
Properties=species:S:1:pos:R:3 REF_energy=-0.0660342342957363
C 4.39064837 -0.09666996 -2.09778929
O 4.45482826 -0.61183977 -0.77324975
C 4.27847862 0.39925984 0.20945993
C 5.46062803 1.36003947 0.30749989
C 6.80472755 0.76124972 0.65577972
N 5.24741793 2.62167883 0.05752998
N 6.32487774 3.43322873 0.12946995
H 4.40917826 -0.94083965 -2.79285884
H 5.25778818 0.53746980 -2.30569911
H 3.46426868 0.46422982 -2.25601912
H 4.17817831 -0.09750997 1.18037951
H 3.34895873 0.95063967 0.02706999
H 6.68241787 -0.26751989 1.00559962
H 7.28767729 1.33829951 1.44882941
H 7.43851709 0.75553972 -0.23566991
H 6.01798773 4.40852833 0.08414997
H 6.92796707 3.31142879 -0.68786973
11
Properties=species:S:1:pos:R:3 REF_energy=-0.044388416063427805
C 0.99999964 0.00000000 0.00000000
C 2.44399905 0.00000000 0.00000000
C 3.63415861 0.00000000 0.00000000
C 5.04015779 0.00000000 0.00000000
C 5.74191809 1.13786948 0.00000000
H 0.60598981 1.02087963 0.01167999
H 0.60591978 -0.52051979 0.87824970
H 0.60591978 -0.50028980 -0.88992965
H 5.55446815 -0.95633966 0.00000000
H 5.25560808 2.10879922 0.00000000
H 6.82681704 1.11896956 0.00000000
15
Properties=species:S:1:pos:R:3 REF_energy=-0.04991998687301846
C 0.96836966 0.08534997 -0.14546995
C 2.44253922 -0.11930995 0.01603999
C 3.08237886 -1.30008948 -0.01280999
N 2.56650901 -2.55670905 -0.21945991
C 3.21724892 1.12932968 0.26653990
N 4.40293837 1.23362947 -0.39243987
O 2.78098893 2.04485917 0.95120960
H 0.77104974 0.84347969 -0.91124970
H 0.52312982 0.42209983 0.79654968
H 0.44741982 -0.82555968 -0.45360982
H 4.15920830 -1.34397948 0.15136994
H 1.56211936 -2.63099909 -0.07548998
H 3.07697892 -3.29611874 0.26046991
H 4.68739843 0.57687980 -1.10487962
H 4.89646816 2.11281919 -0.31770989
17
Properties=species:S:1:pos:R:3 REF_energy=-0.06932675908356267
C 0.79084969 0.07533997 0.19291992
C 2.12950921 0.09946996 0.23030992
C 3.01561904 1.31033945 0.11312996
C 2.35823894 2.67921901 0.09495997
C 3.52451873 3.58585858 0.42357984
O 4.36811876 2.85739899 1.32519948
C 3.98449850 1.47246945 1.28204942
H 0.25399992 -0.86540967 0.27927989
H 0.19232993 0.97207963 0.07227997
H 2.64994907 -0.85192972 0.33881989
H 3.60385871 1.20308959 -0.80888969
H 1.60094941 2.76358891 0.88420969
H 1.88902926 2.92965889 -0.86090964
H 4.11145878 3.81875849 -0.47143984
H 3.21028876 4.52417850 0.88907969
H 4.88127804 0.85568970 1.16634953
H 3.51904869 1.22777963 2.24372911
18
Properties=species:S:1:pos:R:3 REF_energy=-0.07233004905093643
C 2.68890905 -1.06180954 0.92111963
C 3.17576885 -0.28568989 -0.29192990
C 3.20412874 1.19019949 -0.02146999
C 4.31642866 1.94152927 -0.07294997
C 4.38255835 3.38016868 0.17991993
C 4.47860861 3.86862850 1.60167933
N 5.63671827 3.89681864 0.71727973
H 2.67393899 -2.13495922 0.70284975
H 1.67355931 -0.76159972 1.20399952
H 3.34444880 -0.90131962 1.78456926
H 2.50660896 -0.47552982 -1.13805950
H 4.16761827 -0.65204978 -0.57925975
H 2.25471902 1.66208935 0.22375992
H 5.26033831 1.45960939 -0.32496989
H 3.88068843 4.00799847 -0.54846984
H 4.51426840 3.14320874 2.40501928
H 4.03207827 4.82142830 1.85245931
H 5.81024790 4.84129810 0.37008986
13
Properties=species:S:1:pos:R:3 REF_energy=-0.047451792652371094
C 1.02775967 -1.69099939 0.04100998
C 1.94388926 -0.48895982 0.16155992
O 1.13555956 0.68533969 0.22954991
C 1.90899932 1.88536930 0.37373984
C 2.56040907 2.29844904 -0.88093966
N 3.09710884 2.62381887 -1.85820925
H 1.60561943 -2.61748886 -0.01928999
H 0.39817986 -1.60807943 -0.85111964
H 0.35400987 -1.75020933 0.90219963
H 2.60612893 -0.44293985 -0.70924973
H 2.54952908 -0.57443982 1.07037961
H 2.64015889 1.76285934 1.18073964
H 1.21305954 2.67030907 0.68812972
20
Properties=species:S:1:pos:R:3 REF_energy=-0.07717234433463527
C 1.01607966 -0.22735992 -0.07683997
C 2.54990911 -0.23332991 0.03401999
C 2.96295905 -1.08075964 1.24561954
N 3.10755897 -0.85827971 -1.17795956
C 3.05612874 1.22648954 0.15723994
C 4.57399797 1.39341950 0.25868991
O 5.22472811 0.92698967 -0.91407967
H 0.67886978 0.34856987 -0.94649965
H 0.56101978 0.22097993 0.81384969
H 0.61614978 -1.24334955 -0.17580993
H 2.61923909 -0.62202972 2.17960906
H 4.04961872 -1.20117962 1.31233954
H 2.53077912 -2.08735919 1.19406950
H 2.73403907 -0.38268986 -2.00406933
H 2.76881909 -1.82021928 -1.25009954
H 2.59908891 1.69432938 1.03857958
H 2.70909905 1.79384935 -0.71735972
H 4.98521805 0.86471969 1.12332952
H 4.82197809 2.45368910 0.37543988
H 4.78363800 0.07898997 -1.14412963
22
Properties=species:S:1:pos:R:3 REF_energy=-0.08864074692592472
C 0.96438962 -0.10073996 -0.00087000
C 2.49515891 0.01305000 -0.04068999
C 3.01352882 -0.81670970 -1.22708952
C 3.01746893 1.48873937 -0.03453999
C 2.60727906 2.27963901 -1.28700960
C 2.53166914 2.24617910 1.21545947
N 4.49009848 1.47000957 0.01030000
H 0.54746974 0.37358987 0.89176965
H 0.65990978 -1.15313959 0.02790999
H 0.49984980 0.35082987 -0.88243961
H 2.86810899 -0.47618982 0.87119967
H 2.62190914 -0.44898984 -2.18055916
H 2.70059896 -1.86214936 -1.12623954
H 4.10636854 -0.81256968 -1.27874947
H 2.99311876 1.82496929 -2.20561934
H 2.99184895 3.30658865 -1.25101948
H 1.51857936 2.35100913 -1.37846959
H 2.76786900 1.69592941 2.13356924
H 1.44990945 2.41434908 1.19028962
H 3.00130868 3.23459888 1.29248953
H 4.80394840 1.00649965 0.86224967
H 4.85106802 2.42225909 0.05550998
