20
Properties=species:S:1:pos:R:3 REF_energy=-0.08354143657441115
C 1.03209960 -0.28634989 -0.03047999
C 2.55987906 -0.23622991 -0.01176000
N 3.08751869 -1.03469956 -1.11881948
C 3.05324888 1.21716952 -0.09445997
C 4.57916832 1.33629954 -0.00315000
C 5.01539803 2.77525902 -0.03610999
C 5.70262814 3.37507868 0.94394970
H 0.61638975 0.27389991 0.81387973
H 0.67090976 -1.31791949 0.04694998
H 0.62670982 0.14525995 -0.95275962
H 2.91099882 -0.67838979 0.92808962
H 2.74590898 -0.66460973 -2.00537920
H 2.72939897 -1.98720920 -1.05588961
H 2.60097885 1.79186940 0.72505975
H 2.70303917 1.67928946 -1.02720964
H 5.05320787 0.82071966 -0.84659970
H 4.93315792 0.84649968 0.91226965
H 4.76085806 3.34491897 -0.92775965
H 5.98918819 2.84530902 1.84671926
H 5.99849796 4.41577864 0.85689968
15
Properties=species:S:1:pos:R:3 REF_energy=-0.053223379613591915
C 0.91138965 0.02634999 0.12081996
C 2.42314911 0.05969997 0.01399999
C 3.16112876 1.08690953 0.92349970
C 4.20525837 -0.02370999 1.16440964
O 5.36595821 -0.05150998 1.51862943
C 3.19657874 -1.11602962 0.69640976
O 3.73876858 -2.10636926 -0.19968992
H 0.50554979 -0.81944966 -0.44358984
H 0.47843981 0.94324964 -0.29164991
H 0.58132976 -0.06844997 1.15998948
H 2.71402884 0.17351992 -1.04105961
H 2.63384914 1.37880945 1.83639932
H 3.54454875 1.97142923 0.41098985
H 2.68052888 -1.58439934 1.54230952
H 4.67265797 -2.19726920 0.06796998
16
Properties=species:S:1:pos:R:3 REF_energy=-0.06260445055770258
C 2.29987907 2.13967919 0.57219982
C 3.26688862 2.49418902 1.42745948
O 4.56954813 2.81206894 1.17173958
C 4.98658800 2.81768894 -0.19659993
C 6.42973757 3.22155881 -0.24137992
C 7.51481724 2.18297911 -0.35240987
N 7.19270706 3.05214906 -1.48201942
H 1.30503953 1.91572940 0.94406968
H 2.45404911 2.05601931 -0.49612981
H 3.08529878 2.56451917 2.49501896
H 4.39765835 3.55129862 -0.75898975
H 4.84737825 1.82177937 -0.63396972
H 6.62492752 4.12712812 0.32074988
H 7.23610735 1.14164960 -0.46328983
H 8.45856667 2.36207891 0.14837995
H 7.88955736 3.79417849 -1.57836938
15
Properties=species:S:1:pos:R:3 REF_energy=-0.055884082847381444
C 1.79351938 0.15232994 -1.30441952
O 3.07470894 0.33290988 -0.71352971
C 3.38367867 1.56693935 -0.16878994
C 2.55101919 2.62471890 -0.17169994
C 4.72543812 1.64685941 0.44809982
C 5.91996813 1.77847934 -0.46490982
O 5.53974819 2.83364892 0.42428985
H 1.73120928 -0.87966967 -1.66232932
H 1.66249943 0.81518972 -2.16564918
H 0.99692965 0.30024987 -0.56810975
H 1.56187940 2.61386895 -0.60894978
H 2.86663890 3.56295848 0.27715990
H 4.83502817 1.00582957 1.31680954
H 5.75912809 1.93801928 -1.52362943
H 6.81022739 1.21291959 -0.22291993
15
Properties=species:S:1:pos:R:3 REF_energy=-0.052068645084764054
C 1.02870965 0.11270995 -0.56751984
C 2.15793920 -0.04992998 0.40282986
C 2.47839928 -1.42003942 1.13301957
C 3.84044838 -0.61921978 1.17214966
O 3.49886870 -0.31091988 -0.28082991
C 3.57289863 0.62461978 1.94104922
C 2.40699911 1.02276969 1.41124952
H 0.06356998 0.12662995 -0.05014998
H 1.00412965 -0.71179974 -1.28818953
H 1.12091959 1.04499960 -1.13492966
H 2.46431899 -2.31998920 0.51088983
H 1.98180926 -1.60526943 2.08907914
H 4.78211784 -1.15126956 1.30252957
H 4.17434835 1.08579957 2.70468903
H 1.81382930 1.89272940 1.63305938
14
Properties=species:S:1:pos:R:3 REF_energy=-0.04709038170689195
C 3.11369896 -1.36879945 -0.12987995
C 2.61952901 0.05143998 -0.19883992
O 1.43061948 0.30964988 -0.41204986
N 3.54917884 1.05804956 -0.01404999
O 3.01473880 2.37048912 -0.09200997
C 4.89608812 0.98049963 0.23072991
C 5.70615816 2.03374910 0.39438984
H 3.85910869 -1.54740953 -0.90957963
H 2.27499914 -2.05276918 -0.29319990
H 3.53662872 -1.57384932 0.85727972
H 2.06765914 2.18557906 -0.26775989
H 5.31962776 -0.01685999 0.29313987
H 5.33936787 3.05403900 0.34267986
H 6.76463747 1.89509928 0.58557981
12
Properties=species:S:1:pos:R:3 REF_energy=-0.036066786602439116
O 2.32151890 3.71584868 0.95813966
C 2.74253893 3.72248864 -0.19022994
N 3.89978838 3.12195897 -0.64011973
C 4.74660826 2.41967916 0.18027993
C 5.86358738 1.84516931 -0.27617991
C 6.73433733 1.10306966 0.65472972
O 7.76395702 0.56692982 0.26305988
H 2.21002913 4.23341846 -1.00932968
H 4.12376833 3.21095872 -1.62476945
H 4.44984818 2.36063910 1.22729957
H 6.18720722 1.88439929 -1.30785954
H 6.41015768 1.05923963 1.70769942
15
Properties=species:S:1:pos:R:3 REF_energy=-0.054299946727442316
C 2.04444909 -0.30194989 -0.22356991
O 3.27495885 0.40972987 -0.18859993
C 3.24985886 1.78874934 -0.20056991
C 2.12291908 2.52100897 -0.22310992
N 4.48786831 2.40030909 -0.19015993
C 5.73660803 1.85153925 -0.13866995
N 6.07324743 0.61251974 -0.07484997
H 2.27543902 -1.37136948 -0.23140991
H 1.48348939 -0.07378997 -1.13566959
H 1.44673944 -0.09343996 0.66950977
H 1.13199949 2.08474922 -0.23025991
H 2.15540910 3.60553861 -0.23118991
H 4.45224857 3.41160870 -0.22016992
H 6.52940750 2.61901903 -0.15426993
H 5.19421768 0.07296997 -0.07073997
19
Properties=species:S:1:pos:R:3 REF_energy=-0.0776582235408636
C 3.06899881 -1.12540948 -0.64556980
C 2.54281902 0.04728998 0.16868994
C 3.34664893 1.32952952 -0.05574998
C 3.29740858 1.86194932 -1.49658942
C 3.39133883 3.33990884 -1.29964960
C 3.15123868 3.68606877 -0.03042999
C 2.85894895 2.49425888 0.82089972
H 2.49515891 -2.02957916 -0.41790983
H 4.12024832 -1.32425940 -0.41303983
H 2.98347878 -0.93683970 -1.72026944
H 2.57724881 -0.21849991 1.23186946
H 1.48864949 0.21331991 -0.08290996
H 4.39796829 1.12896955 0.20095994
H 2.36351895 1.60973930 -2.01006913
H 4.14002848 1.48268938 -2.08301926
H 3.59292865 4.03794861 -2.10077929
H 3.13193893 4.70260859 0.33700988
H 3.41209888 2.52978897 1.76455927
H 1.78719938 2.44064903 1.03977954
18
Properties=species:S:1:pos:R:3 REF_energy=-0.07084516870598745
C 0.88378966 2.32616925 -0.54443979
N 1.80786932 1.33216953 -0.01084000
C 3.19046879 1.80834925 -0.10556996
C 4.17080832 0.74887967 0.41043985
C 4.12311840 -0.57062978 -0.35773987
C 4.59960842 -0.45700982 -1.78515923
O 5.21070814 0.50317985 -2.24340916
H -0.13974994 1.94515920 -0.47611982
H 1.08858967 2.53128910 -1.60024941
H 0.93350965 3.26338887 0.01935999
H 1.57819939 1.15944958 0.96796966
H 3.31193876 2.71750903 0.49606982
H 3.43143868 2.06753922 -1.14214957
H 3.95888853 0.54661977 1.46794951
H 5.18580818 1.16308951 0.36996987
H 3.10928893 -0.98320967 -0.37243986
H 4.76833820 -1.30640948 0.13528995
H 4.41665840 -1.34954941 -2.40805912
16
Properties=species:S:1:pos:R:3 REF_energy=-0.06112938877110552
C 0.75517970 1.05886960 -0.49737981
N -0.41537985 0.40074986 0.07570997
C 0.80105972 -0.38467985 -0.07644997
C 1.55427945 -0.87064964 1.13154948
C 1.33180940 -0.28948987 2.53734899
O 1.38387954 -1.62148941 3.12108898
C 1.15057957 -2.19145918 1.80691934
H 0.71380973 1.29286957 -1.55363941
H 1.23493946 1.80112934 0.12849995
H -1.09745955 0.17247993 -0.65147978
H 0.80923969 -1.14122963 -0.85380971
H 2.62553906 -0.87806964 0.87963963
H 0.36455986 0.18283993 2.73591876
H 2.13743925 0.35036987 2.90891886
H 1.81051934 -3.03938890 1.60408938
H 0.10578996 -2.49623895 1.68779945
15
Properties=species:S:1:pos:R:3 REF_energy=-0.05701414870130028
O 1.15141964 0.01203999 0.32762986
C 2.55269909 -0.03298999 0.06549998
C 2.88113904 -1.25666952 -0.80639970
C 3.23476863 -0.66527975 -2.13878942
C 3.29200888 0.67039973 -2.09689927
C 2.97337890 1.15205967 -0.77565974
C 3.05898881 2.42659903 -0.37935987
H 0.83020973 0.88799971 0.05543998
H 3.08198881 -0.07180998 1.02287960
H 2.03702927 -1.94774926 -0.89305967
H 3.74855852 -1.79711926 -0.41144985
H 3.44620872 -1.26132953 -3.01555896
H 3.55656886 1.30753946 -2.92895889
H 2.81481910 2.71271896 0.63926977
H 3.38328886 3.21218872 -1.05477965
19
Properties=species:S:1:pos:R:3 REF_energy=-0.07616047979753371
C 1.26391947 0.92560965 -0.39537984
O 2.61990905 0.72123969 -0.02392999
C 3.41113853 1.88189924 -0.26849988
C 4.80922842 1.59534943 0.17241994
C 5.85004807 1.12057948 -0.81260967
C 5.93822765 2.51106906 -0.23748991
C 7.00788689 2.85470891 0.74251974
H 0.69898975 0.02453999 -0.14394996
H 1.18623960 1.09831965 -1.47266948
H 0.83629966 1.76973927 0.15379994
H 3.01425886 2.72340894 0.31132987
H 3.37195873 2.13667941 -1.33464956
H 4.83141804 1.17629957 1.17231953
H 5.56817770 1.01648962 -1.85439932
H 6.55444717 0.36812985 -0.47412980
H 5.71536779 3.34353876 -0.89589971
H 7.26478720 2.00668931 1.38569951
H 6.67970753 3.67934871 1.38211954
H 7.91371679 3.16972876 0.21643992
16
Properties=species:S:1:pos:R:3 REF_energy=-0.0549824140089572
C 0.22231992 -1.74166930 0.67626971
N 1.24548960 -1.16286945 -0.20450993
C 1.97355926 -2.25635934 -0.87405968
C 2.19178915 -0.34176984 0.60996974
C 2.88573909 0.68411976 -0.28537992
O 2.21668935 0.87633967 -1.45211947
O 3.88975859 1.30789959 0.02103999
H 0.65818977 -2.36986923 1.46162951
H -0.48350981 -2.34789920 0.09759997
H -0.36464986 -0.94847965 1.15252960
H 1.28749955 -2.83857894 -1.49935937
H 2.44986916 -2.93642879 -0.15838994
H 2.74756908 -1.86233938 -1.54122937
H 2.93986893 -0.96284968 1.11414969
H 1.64211941 0.24221991 1.35764945
H 1.45795941 0.24284992 -1.44112945
13
Properties=species:S:1:pos:R:3 REF_energy=-0.041392544486614224
C 0.96933961 -0.01938999 -0.00809000
C 2.45024920 0.06025998 -0.00041000
C 3.29648876 1.15172958 0.00380000
C 4.62448835 0.66477978 0.01030000
C 4.55658817 -0.70919973 0.00992000
N 3.23390865 -1.06807959 0.00331000
H 0.52198982 0.97985965 0.00079000
H 0.60837978 -0.56006980 0.87292963
H 0.61700982 -0.54076982 -0.90389967
H 2.98902893 2.19010925 0.00223000
H 5.53217793 1.25335956 0.01483999
H 5.33372831 -1.46215951 0.01368999
H 2.88886905 -2.01908922 0.00143000
15
Properties=species:S:1:pos:R:3 REF_energy=-0.05968964014471201
C 0.92817968 -0.18355994 0.01265000
C 2.40558887 -0.40988985 0.01744999
C 2.98463869 -1.60830939 0.18146993
C 3.29084873 0.76943970 -0.17145993
N 2.83908916 1.97119915 -0.33808988
N 3.88476849 2.87758899 -0.49004984
C 3.42610860 4.07215834 -0.65480977
H 0.64130974 0.50355983 0.81535971
H 0.37464985 -1.11675966 0.16221994
H 0.60713983 0.24210991 -0.94364965
H 2.38602901 -2.50322914 0.32351989
H 4.06270838 -1.73811924 0.17992993
H 4.37788820 0.56682980 -0.16259995
H 4.12339830 4.91275787 -0.79042971
H 2.34810925 4.30769825 -0.66822976
17
Properties=species:S:1:pos:R:3 REF_energy=-0.06270903047720999
C 1.05180967 -0.06132998 0.00891000
C 2.54210901 -0.03970999 -0.01769999
C 3.32463884 -0.70037973 -1.12507963
O 2.56821895 -1.30421960 -2.18243909
C 3.27560878 0.80490971 -1.03179967
C 4.49080801 1.57006943 -0.63344973
O 5.26962805 1.83158934 -1.79076934
H 0.67950976 0.71610975 0.68391973
H 0.69567972 -1.02880967 0.37614986
H 0.61179978 0.11402996 -0.97790962
H 2.95101881 -0.12060995 0.98391962
H 4.24081850 -1.20596957 -0.83365971
H 2.09520912 -0.64904976 -2.72322893
H 2.68625903 1.35660946 -1.75496936
H 5.11015844 1.03062963 0.09074997
H 4.20484829 2.52897906 -0.19097993
H 5.50141811 0.96980965 -2.17766929
17
Properties=species:S:1:pos:R:3 REF_energy=-0.06706413786382948
C 2.12385917 -0.66040975 1.45219946
C 2.60520911 -0.16805995 0.09367996
C 3.00937891 1.29179955 0.10834996
C 1.87202930 2.27461910 0.21716993
C 4.30673838 1.63645947 0.00000000
C 4.77606821 2.96180892 0.00000000
C 5.17334795 4.08370829 0.00000000
H 1.89577925 -1.72999942 1.40421939
H 1.21464956 -0.14077994 1.76838934
H 2.88945889 -0.51170981 2.22013903
H 1.81697941 -0.31979987 -0.65451974
H 3.44678879 -0.79727972 -0.22452992
H 1.12791955 2.07769918 -0.56257981
H 2.18690920 3.31592870 0.10274996
H 1.38195956 2.18693924 1.19237947
H 5.06326818 0.86030966 -0.08502997
H 5.52685785 5.08826780 0.00024000
19
Properties=species:S:1:pos:R:3 REF_energy=-0.07790521437787379
C 3.14723873 -2.02867913 -0.47045982
C 2.73183894 -0.77238971 0.24381991
C 1.79966938 -0.79426968 1.21107948
C 3.37676883 0.51933980 -0.20674992
C 4.88320780 0.55513984 0.04846998
C 5.48244762 1.89491928 -0.36132985
O 6.88968754 1.87876928 -0.15922993
H 3.07048893 -1.89424932 -1.55453944
H 2.51620889 -2.88205910 -0.19944993
H 4.18064833 -2.28874922 -0.22234993
H 1.32531953 -1.72084939 1.52179933
H 1.48189950 0.11078996 1.71860933
H 2.90946913 1.37074947 0.30359989
H 3.17791867 0.65777975 -1.27611959
H 5.39238834 -0.24397990 -0.50555980
H 5.09880781 0.36808985 1.10880959
H 5.05761814 2.71681881 0.22315992
H 5.29801798 2.09577918 -1.42098951
H 7.04857779 1.70146930 0.78392971
12
Properties=species:S:1:pos:R:3 REF_energy=-0.03485641029305708
C 0.97801965 -0.09769996 -0.15933993
N 2.41535902 -0.00947000 0.07403997
C 2.89945889 1.40003943 0.07991997
C 2.39982891 2.18233919 1.23558950
N 1.97852933 2.81282902 2.11642933
C 4.38055849 1.44526947 0.03204999
N 5.54077816 1.46974945 -0.05494998
H 0.68366975 -1.15138960 -0.19606993
H 0.69680977 0.36059985 -1.11300957
H 0.40513986 0.36899987 0.64769977
H 2.90004897 -0.51717979 -0.66765976
H 2.54204893 1.88307929 -0.83965969
17
Properties=species:S:1:pos:R:3 REF_energy=-0.06825672373269043
C 2.87492895 -1.10849953 -0.47103983
N 2.36098909 0.10942996 0.14060993
C 3.35735869 1.18350959 0.16087994
C 3.46478891 2.10916924 -1.02108955
C 2.87162900 2.60509896 0.26852989
C 3.61132860 3.59136868 1.10507953
H 2.09130931 -1.87230933 -0.48258981
H 3.72850847 -1.50537944 0.08821997
H 3.18078876 -0.93132967 -1.50728941
H 2.04554915 -0.09848996 1.08782959
H 4.28390837 0.94301963 0.67964977
H 2.79280901 1.95357931 -1.85749936
H 4.45318842 2.44869900 -1.30699944
H 1.80216932 2.78147912 0.29196990
H 4.69392824 3.42726874 1.07769966
H 3.28314877 3.52205873 2.14724922
H 3.41276860 4.60857821 0.75233972
14
Properties=species:S:1:pos:R:3 REF_energy=-0.04710524978904829
N 3.03023887 4.10614872 -1.73858941
C 2.50466919 3.69302845 -0.64258975
N 3.08902907 2.84159899 0.24239992
C 4.28947830 2.08519912 -0.09106997
C 5.53556824 2.96711898 -0.06392998
C 6.73426771 2.15306926 -0.28529990
N 7.67680740 1.49386942 -0.44395983
H 2.37766910 4.73996782 -2.21414924
H 1.49827945 4.02066851 -0.32744986
H 2.47002912 2.39047909 0.90868968
H 4.17116833 1.59932935 -1.06764960
H 4.39548826 1.27759945 0.64416975
H 5.60965824 3.47592878 0.90445966
H 5.48061800 3.75131845 -0.82674968
11
Properties=species:S:1:pos:R:3 REF_energy=-0.04344063435227452
C 0.94134963 -0.10222996 0.00229000
C 2.42793894 0.00162000 -0.21287991
O 3.09764886 -0.96348965 -0.57879978
C 3.11760879 1.30008948 0.02014999
C 2.51638913 2.42682910 0.41972983
H 0.41475987 0.57977974 -0.67024976
H 0.69570971 0.11543996 1.04488957
H 0.61482978 -1.12261963 -0.22076993
H 4.18825817 1.27746952 -0.16187994
H 1.45163941 2.49555898 0.61330974
H 3.10082865 3.33103895 0.56490976
15
Properties=species:S:1:pos:R:3 REF_energy=-0.05735379258900797
C 1.29367959 -0.42190987 -0.46075982
N 2.72290897 -0.20824993 -0.25998992
N 3.11344886 1.08804965 -0.21477993
C 4.39363813 1.23756957 -0.07805997
C 5.00911808 2.60806894 -0.01180000
C 5.72376776 2.79481912 1.25837958
C 6.30795765 2.95500898 2.29527903
H 1.08430958 -1.49400949 -0.52129978
H 0.95930964 0.04001999 -1.39501941
H 0.71517974 -0.00331000 0.36881986
H 3.01312900 -0.71861976 0.57812977
H 5.08671808 0.37717986 -0.02347999
H 4.23090839 3.36860871 -0.13129994
H 5.70736790 2.69822884 -0.85033971
H 6.82214737 3.10311890 3.21778870
13
Properties=species:S:1:pos:R:3 REF_energy=-0.04690783061122805
C 1.67252934 -0.32973987 0.05159998
O 0.89728963 -1.54421937 0.22777992
C -0.17444992 -1.01212966 -0.58307976
C -1.37357950 -0.53730977 0.12039996
C -1.29521954 0.79032969 0.23884991
O -0.17172994 1.42756939 -0.27495989
C 0.58786976 0.30505988 -0.82280964
H 2.62062907 -0.53058982 -0.45595983
H 1.86303926 0.16527994 1.00856960
H -0.36915985 -1.62169933 -1.47024953
H -2.17271924 -1.16505957 0.48057979
H -2.00206923 1.45869935 0.70570976
H 0.88496965 0.48866984 -1.86018932
15
Properties=species:S:1:pos:R:3 REF_energy=-0.055225800916328005
C 1.04761958 0.01591999 0.10497996
C 2.55125904 -0.00047000 -0.04367999
O 3.13375878 1.04873967 0.75824970
C 4.43882847 0.59684980 1.14021957
C 4.28851795 -0.86556965 1.49230945
C 3.19784880 -1.23371959 0.54273981
O 2.86891890 -2.38759899 0.29621992
H 0.58397979 -0.78598970 -0.47741982
H 0.64020979 0.97560960 -0.22870992
H 0.75300974 -0.10923996 1.15245962
H 2.87228894 0.12827995 -1.08223963
H 5.11926794 0.74240971 0.29225987
H 4.80228853 1.19168949 1.98307920
H 5.20458794 -1.43227947 1.31976950
H 3.92360854 -0.99857962 2.51388907
14
Properties=species:S:1:pos:R:3 REF_energy=-0.04853089714932146
C 1.03720963 -0.14928995 -0.29793990
C 2.52408910 -0.02400999 0.01605999
C 3.02738905 1.43281937 0.00000000
C 2.42324924 2.20877910 1.10787964
C 1.93322933 2.84109879 2.00299931
C 4.47078800 1.45268953 0.03624999
N 5.62132788 1.46851945 0.06513998
H 0.74891967 -1.20492959 -0.33090988
H 0.80340970 0.29501987 -1.27064955
H 0.42178985 0.33999988 0.46291983
H 3.07602882 -0.61287975 -0.72883976
H 2.72416902 -0.48983982 0.99030960
H 2.70578909 1.89234936 -0.94408965
H 1.50296938 3.40406895 2.80058885
15
Properties=species:S:1:pos:R:3 REF_energy=-0.054501611241551284
C 2.07454920 -0.49859983 1.31241953
C 2.33156919 0.01760999 -0.09262996
C 2.87475896 1.41874945 -0.05390998
N 2.23632932 2.54855919 -0.03569999
N 0.88409966 2.46486926 -0.06267998
C 4.30185843 1.62522948 0.01050000
C 5.48978806 1.79277933 0.06551997
H 1.68949938 -1.52224934 1.27699959
H 1.34230947 0.12405995 1.83643925
H 2.99441886 -0.49978980 1.90657926
H 1.40886950 -0.01227000 -0.68056977
H 3.05615878 -0.63302976 -0.59558976
H 0.50507981 3.37333870 -0.34581986
H 0.52266979 2.33534908 0.88652968
H 6.54189730 1.95336926 0.11344995
16
Properties=species:S:1:pos:R:3 REF_energy=-0.05645280616416826
C 0.96941960 0.03745999 -0.20472993
N 2.28966928 0.52295977 0.16742992
C 3.46187878 -0.30514988 -0.39346984
C 4.24524832 1.05664957 -0.10275996
C 2.90039897 1.54560947 -0.81045967
C 2.92999887 0.90740967 -2.15476918
C 3.30663872 -0.34417987 -1.87071919
H 0.21932991 0.76359969 0.12517996
H 0.76370972 -0.89746970 0.32687989
H 0.78974974 -0.14501995 -1.26797950
H 3.74256873 -1.21171963 0.14048994
H 4.38158846 1.33615947 0.94951963
H 5.18316841 1.21900952 -0.64332980
H 2.58901882 2.58542895 -0.71809977
H 2.70190883 1.35339952 -3.10791874
H 3.46417856 -1.17714953 -2.53432918
18
Properties=species:S:1:pos:R:3 REF_energy=-0.07082253238615466
C 2.81741881 -0.47519982 -1.69621933
C 2.47020888 0.02641999 -0.29744989
C 3.02738905 1.43281937 0.00000000
N 2.50009918 1.84607935 1.30910945
C 2.77142882 3.24415874 1.61640930
C 4.47138834 1.43281937 0.00000000
C 5.66154814 1.43281937 0.00000000
H 2.33170915 -1.43933940 -1.87847936
H 3.89555860 -0.61944979 -1.81610930
H 2.47396898 0.22687991 -2.46145916
H 2.83786893 -0.70067978 0.43803984
H 1.37578952 0.04221999 -0.20797993
H 2.64688897 2.11611915 -0.76960969
H 2.90771890 1.25333953 2.03153920
H 2.38816905 3.90753865 0.83501965
H 3.84137869 3.43552876 1.75623930
H 2.26727915 3.51159883 2.54908895
H 6.72711754 1.43291950 0.00020000
13
Properties=species:S:1:pos:R:3 REF_energy=-0.031572158549763474
C 0.96484965 -0.14727993 -0.01157000
C 2.47136903 0.05216998 0.02285999
C 2.83096910 1.48329937 0.00587000
C 3.12352896 2.42597914 0.95148963
N 3.38416862 3.60633850 0.32159987
N 3.26421881 3.43101883 -0.99105960
O 2.91593885 2.09554911 -1.20629954
H 0.72301972 -1.21458960 0.00292000
H 0.52798980 0.28813991 -0.91665965
H 0.48310980 0.32227987 0.85281968
H 2.92689872 -0.45554984 -0.83533967
H 2.87933898 -0.42006984 0.92412961
H 3.16075897 2.32830930 2.02478909
13
Properties=species:S:1:pos:R:3 REF_energy=-0.04784172841466394
C 0.92284966 0.00224000 -0.12926996
C 2.25362897 0.00739000 0.03354999
C 2.98998904 1.25957954 0.12325995
C 4.31997824 1.20026958 0.28846988
O 5.03617811 0.01791999 0.37861988
C 4.32909870 -1.16976953 0.29021990
C 2.99922872 -1.23919964 0.12504995
H 0.35921985 -0.92304963 -0.19776992
H 0.35244986 0.92335963 -0.19909993
H 2.47302914 2.20914912 0.05781998
H 4.97136784 2.05858922 0.36837986
H 4.98656845 -2.02290916 0.37130988
H 2.48943925 -2.19280910 0.06091998
20
Properties=species:S:1:pos:R:3 REF_energy=-0.08168571903014654
C 1.11058962 2.25256920 -0.28805989
N 2.55183887 2.21177912 -0.49398983
C 3.17264867 1.18707955 0.34719986
C 4.67416811 1.14929962 0.09439997
C 5.52608776 2.31693912 0.66754973
C 6.61594772 1.27224958 0.97980958
C 5.49204779 0.21767992 1.02858961
H 0.67034972 3.01540875 -0.93742961
H 0.86016971 2.50712919 0.74832976
H 0.64560980 1.29468954 -0.54288983
H 2.94549894 3.12359881 -0.26268989
H 2.74831891 0.20501992 0.10681996
H 2.96927881 1.38960946 1.40576947
H 4.90079784 0.95250964 -0.96470964
H 5.10427809 2.79101896 1.56172943
H 5.80791759 3.09399891 -0.04765998
H 7.32885695 1.11968958 0.16159995
H 7.16742706 1.42351949 1.91092920
H 5.74550772 -0.76280969 0.61749977
H 5.06180811 0.08306997 2.02874923
14
Properties=species:S:1:pos:R:3 REF_energy=-0.047934156368507175
N 1.67846930 -0.58708984 0.04786998
C 3.02039886 -0.37390986 0.03616999
O 3.82557869 -1.27833962 0.19408992
C 3.39664888 1.04197967 -0.17108993
C 4.66285801 1.43789947 0.03698998
C 5.18850803 2.82635903 -0.12605995
O 4.25047827 3.65454865 -0.79418969
H 0.99323964 0.15253994 0.00069000
H 1.36218953 -1.52963948 0.23059991
H 2.62637901 1.73746932 -0.48002982
H 5.39578819 0.70459974 0.37260985
H 6.11786795 2.81800914 -0.70413971
H 5.39979839 3.26196861 0.85492969
H 4.25319815 3.37515879 -1.72569931
16
Properties=species:S:1:pos:R:3 REF_energy=-0.05565181072895431
C 0.56521982 1.21327949 0.68161970
C -0.85321969 0.75495976 0.43244982
C -0.86583966 0.01203000 -0.85932970
C 0.54239982 -0.02591999 -1.40367949
C 1.24840951 -0.01306000 -0.01075000
N 0.57407981 -1.17036951 0.68153971
C -0.83090967 -0.74618971 0.43066984
H 0.78664970 2.15777922 0.17624994
H 0.79641974 1.28102958 1.74890935
H -1.68309939 1.32787955 0.79519969
H -1.70479929 -0.02333999 -1.52547932
H 0.74317974 -0.93882960 -1.97297931
H 0.77495968 0.86131972 -1.99999928
H 2.33854914 -0.03509999 -0.01150000
H 0.78243971 -1.12826955 1.67935944
H -1.67100942 -1.33067954 0.77140975
14
Properties=species:S:1:pos:R:3 REF_energy=-0.04931506458640289
C 1.04355955 -0.01947999 0.11598995
C 2.38137913 -0.00427000 0.03465999
C 3.22490883 1.22865963 -0.02926999
N 4.41718864 0.74482971 -0.64280981
C 4.50698805 -0.62563980 -0.68790972
O 5.48452806 -1.23998952 -1.08649957
C 3.23608899 -1.23093951 -0.14525995
H 0.48849982 -0.95318967 0.10499996
H 0.46950981 0.89926970 0.19191992
H 3.47591853 1.60335934 0.96685964
H 2.79577899 2.02082920 -0.64748979
H 5.20540810 1.31736958 -0.91397965
H 2.81430888 -1.93042934 -0.87085968
H 3.44786882 -1.71504939 0.81157970
19
Properties=species:S:1:pos:R:3 REF_energy=-0.07582299855818841
C 1.32608950 -0.58563977 1.56674945
C 1.63978934 -0.15260994 0.14128993
C 3.05669880 0.39613986 -0.00988000
C 4.14260817 -0.66939974 0.02748999
O 3.88548851 -1.87245929 0.05759998
C 5.56993818 -0.14809996 -0.00688000
C 6.60284758 -1.25991952 0.03314999
H 0.28839990 -0.92692965 1.63561940
H 1.45467949 0.24646990 2.26604915
H 1.97174931 -1.40743947 1.88918924
H 0.92838967 0.63147974 -0.14434995
H 1.47752953 -0.99527967 -0.54077977
H 3.26228857 1.13189960 0.77524972
H 3.13922882 0.89934969 -0.98008960
H 5.71300793 0.51395977 0.85322970
H 5.69709778 0.43580985 -0.92442966
H 6.50066757 -1.85925925 0.94393963
H 7.61387730 -0.84194970 0.01002000
H 6.49093771 -1.93169928 -0.82458967
14
Properties=species:S:1:pos:R:3 REF_energy=-0.049762631683273106
O 1.24138951 -0.31222987 -0.78658974
C 2.40290928 -0.12432995 -0.44406983
C 2.86522913 1.19283950 0.02270999
C 4.13575840 1.36612952 0.40184984
N 4.65430832 2.56293893 0.85472971
C 5.64437771 2.48520899 1.93791926
C 6.06656790 2.83257890 0.54995978
H 3.15577888 -0.92893964 -0.46767980
H 2.13707924 1.99417925 0.04482998
H 4.84413815 0.53986979 0.37124988
H 5.84982777 1.49804950 2.32788920
H 5.53393793 3.28137875 2.66159892
H 6.25164795 3.87054849 0.30897987
H 6.57739735 2.09450912 -0.05253998
15
Properties=species:S:1:pos:R:3 REF_energy=-0.05481753173041093
C 1.70828938 -0.71217978 0.19691993
C 3.18293881 -0.41071984 -0.01430000
C 3.47258854 1.08254957 0.11214996
C 4.93686819 1.39859951 -0.09677996
O 5.81347752 0.56835979 -0.29889989
C 5.28936768 2.80200887 -0.03960998
C 5.58495760 3.96594858 0.00717000
H 1.52274942 -1.78614926 0.09680996
H 1.09132957 -0.19053993 -0.54171979
H 1.38407946 -0.40308985 1.19576955
H 3.48723865 -0.76770973 -1.00551963
H 3.77531862 -0.97062963 0.71924978
H 3.18501878 1.43523955 1.10943961
H 2.89121890 1.63760948 -0.63324976
H 5.85887814 4.99460793 0.04668998
15
Properties=species:S:1:pos:R:3 REF_energy=-0.05236131324263127
C 1.13186955 -0.01914999 0.16218995
N 2.56634903 -0.02955999 -0.00051000
N 3.27662873 1.17620945 -0.14881995
C 4.50497866 0.79216969 -0.85639971
C 4.70558834 -0.68948972 -0.57976979
C 3.30399871 -1.15753949 -0.33342987
O 2.92598891 -2.31583905 -0.37357986
H 0.75299972 -1.03836966 0.27719989
H 0.67731977 0.43152982 -0.72500974
H 0.87639964 0.56825978 1.04845965
H 3.52313876 1.49607944 0.79202974
H 4.36133862 0.95938963 -1.93049932
H 5.36345768 1.39106941 -0.53712982
H 5.14516830 -1.20620954 -1.43606949
H 5.29959774 -0.86005968 0.32321990
17
Properties=species:S:1:pos:R:3 REF_energy=-0.06708649560676228
C 1.07143950 -0.06472997 0.29395989
C 2.40183902 0.18604992 -0.33413985
C 3.14555883 1.29020953 -0.19997992
C 2.79372907 2.53610921 0.54679984
C 3.53395867 3.55056858 -0.28595990
C 4.75791836 2.77255893 -0.71997976
O 4.33424807 1.41416943 -0.91119969
H 1.03073967 -1.08752954 0.68297970
H 0.28017989 0.04590998 -0.45388982
H 0.86212969 0.61262977 1.12667954
H 2.78331900 -0.61103976 -0.96951967
H 3.19534874 2.49251914 1.56478941
H 1.72273934 2.74915886 0.58549982
H 2.93300891 3.82182837 -1.16312957
H 3.77996850 4.46782827 0.25492990
H 5.17696810 3.15602875 -1.65547943
H 5.54015779 2.78788900 0.04848998
14
Properties=species:S:1:pos:R:3 REF_energy=-0.055929570558305386
C 2.75166893 3.10300899 -1.12675965
C 2.26306915 1.97732925 -0.59651983
O 2.92922878 0.92094970 -0.04464998
C 4.36082840 0.95072961 -0.04126998
O 4.89011812 1.88274932 0.90825969
N 6.29539728 1.84791934 0.84818971
C 6.76305771 2.63175893 1.75918937
H 2.07483912 3.85148859 -1.52772939
H 3.81137872 3.32611871 -1.17173958
H 1.19558954 1.78558934 -0.55129975
H 4.74672794 1.15610957 -1.04816961
H 4.69335842 -0.05296998 0.24532990
H 7.85143709 2.74511886 1.87960923
H 6.11968756 3.20886898 2.44446921
16
Properties=species:S:1:pos:R:3 REF_energy=-0.062125138461107454
C 0.96722960 0.00090000 -0.00016000
C 2.46757913 -0.01462999 0.00112000
C 3.15074897 -1.16945946 0.00871000
C 3.18499875 1.21762955 0.00000000
C 3.78007841 2.24833918 0.00000000
C 4.50207806 3.49887872 0.00000000
N 3.57328868 4.61899853 -0.04806998
H 0.57573974 1.02330959 0.04259998
H 0.57358980 -0.53934979 0.86742967
H 0.57826978 -0.46494985 -0.91208965
H 2.63847923 -2.12612915 0.01191000
H 4.23654842 -1.18873954 0.01269000
H 5.17677832 3.55098867 -0.86105967
H 5.11759806 3.58467865 0.90126967
H 3.01466894 4.54545832 -0.89662969
H 4.10134840 5.48512793 -0.12450995
20
Properties=species:S:1:pos:R:3 REF_energy=-0.08127392401756106
C 2.22334933 -0.49778980 -1.35179949
C 2.36317921 0.13640995 0.02665999
N 3.30069876 1.26083946 -0.01544999
C 2.65618896 2.48364925 -0.55626982
C 3.32899880 3.28124881 0.58612972
C 4.66638803 3.93039846 0.26358992
C 3.38266873 1.91657937 1.31346953
H 1.56563938 -1.37112951 -1.29752946
H 3.19390869 -0.83168972 -1.73306942
H 1.79218936 0.20266993 -2.07400918
H 2.75470901 -0.62510973 0.71238977
H 1.37153947 0.42255983 0.40130985
H 1.56004941 2.50890899 -0.51352984
H 2.96926904 2.75117874 -1.57057941
H 2.66086888 4.00684881 1.06598961
H 5.35779810 3.23157883 -0.21716993
H 5.14100838 4.30045843 1.17804945
H 4.52424860 4.78217793 -0.40928987
H 4.30331850 1.70770931 1.86663926
H 2.52920914 1.74875939 1.98268926
13
Properties=species:S:1:pos:R:3 REF_energy=-0.041640963174917056
O 0.89546967 0.00146000 0.02887999
C 2.34082913 -0.01964999 0.01466000
C 3.05256891 1.00646961 0.92475963
N 4.05688858 -0.02665999 1.27203953
C 3.05458879 -1.07537961 0.90498966
C 3.63528848 -2.19224930 0.18616992
N 4.09873867 -3.06906891 -0.41824985
H 0.62083977 -0.69447970 -0.59427983
H 2.70976901 0.02295999 -1.01973963
H 2.45905900 1.34452951 1.78218937
H 3.46183872 1.88358927 0.41525987
H 4.87949800 -0.01210000 0.66530973
H 2.45032907 -1.39409947 1.76490927
14
Properties=species:S:1:pos:R:3 REF_energy=-0.0451378269698286
O 1.54668939 0.16860995 1.30541956
C 2.38850927 0.05827998 0.43078983
C 2.99473882 -1.24152946 -0.09570996
C 3.96928859 -0.82341969 -1.17295957
C 5.19655800 -0.00713000 -0.86615968
C 3.91651845 0.67860973 -1.24080956
N 2.97113872 1.10546958 -0.26741990
H 2.19742918 -1.86243927 -0.51339978
H 3.50515890 -1.76691937 0.71568972
H 3.91614866 -1.39936948 -2.08443928
H 5.53761816 0.05707998 0.16090994
H 6.00025797 -0.00870000 -1.59406948
H 3.83234859 1.14786959 -2.21414924
H 2.71841884 2.06446934 -0.07493997
17
Properties=species:S:1:pos:R:3 REF_energy=-0.0628646163140143
N 1.00419962 0.11632995 0.17280993
C 2.44781923 -0.04824998 0.02889999
C 2.81676888 -1.44668949 -0.45773983
C 2.82983875 -1.33010948 -1.97951937
N 3.32193875 0.03091999 -2.27600908
C 2.26553917 1.03086960 -2.37748909
C 2.98077893 0.83137971 -1.06755960
H 0.80714965 1.06011963 0.50335979
H 0.66223973 -0.51709980 0.89378971
H 2.93541908 0.16750993 0.98551959
H 2.14468932 -2.23170924 -0.09845997
H 3.82842851 -1.69303930 -0.10616996
H 3.50356865 -2.07566929 -2.41431904
H 1.83240926 -1.50669944 -2.39960909
H 2.50898910 1.91428924 -2.95555878
H 1.24096954 0.69589972 -2.48635888
H 3.73650861 1.53807938 -0.75251973
15
Properties=species:S:1:pos:R:3 REF_energy=-0.059468972431927725
C 0.39572987 0.42673984 -0.08106998
C 1.82329929 0.06034998 0.15595995
C 2.84950876 0.91601962 0.02780999
C 4.24360847 0.46153983 0.28399992
O 4.51892853 -0.68582976 0.61233979
C 5.27691793 1.51770949 0.10783996
C 6.57184744 1.23795950 0.30228987
H -0.02248999 -0.19894992 -0.87538970
H 0.28113988 1.47467935 -0.37584987
H -0.18750992 0.26244989 0.83006966
H 2.01355910 -0.97159964 0.44955984
H 2.68987894 1.94704938 -0.26239988
H 4.96185827 2.51285911 -0.17957993
H 6.90068722 0.24266991 0.59095973
H 7.33281708 2.00024915 0.17653994
19
Properties=species:S:1:pos:R:3 REF_energy=-0.07374344173067349