6
Properties=species:S:1:pos:R:3 REF_energy=-0.024354026881115154
O 0.70790000 0.00000000 0.00000000
C -0.70790000 0.00000000 0.00000000
H -1.07320000 -0.76900000 0.68520000
H -1.07310000 -0.19470000 -1.01130000
H -1.06320000 0.97860000 0.33120000
H 0.99360000 -0.88040000 -0.29800000
9
Properties=species:S:1:pos:R:3 REF_energy=-0.036805318542565024
O -1.17120000 0.29970000 0.00000000
C -0.04630000 -0.56650000 0.00000000
C 1.21750000 0.26680000 0.00000000
H -0.09580000 -1.21200000 0.88190000
H -0.09520000 -1.19380000 -0.89460000
H 2.10500000 -0.37200000 -0.01770000
H 1.24260000 0.93070000 -0.87040000
H 1.26160000 0.90520000 0.88860000
H -1.12910000 0.83640000 0.80990000
12
Properties=species:S:1:pos:R:3 REF_energy=-0.04928758884641071
O 1.83810000 -0.16030000 -0.00380000
C -0.53000000 -0.50810000 0.00380000
C 0.59080000 0.52000000 0.00360000
C -1.89890000 0.14840000 -0.00360000
H -0.42760000 -1.16480000 -0.86850000
H -0.43650000 -1.15790000 0.88220000
H 0.54330000 1.15300000 -0.88780000
H 0.54770000 1.16320000 0.88820000
H -2.03000000 0.77170000 -0.89390000
H -2.68510000 -0.61300000 -0.00320000
H -2.03600000 0.77890000 0.88080000
H 1.88480000 -0.69710000 0.80570000
15
Properties=species:S:1:pos:R:3 REF_energy=-0.061738659639965165
O -2.41870000 0.34890000 -0.00690000
C -0.02450000 0.34210000 0.01940000
C 1.23600000 -0.51810000 0.00580000
C -1.28610000 -0.50900000 -0.00590000
C 2.49340000 0.33610000 -0.01250000
H -0.03620000 0.98610000 0.90770000
H -0.02610000 1.02120000 -0.84250000
H 1.23310000 -1.16950000 -0.87590000
H 1.25290000 -1.16730000 0.88890000
H -1.32720000 -1.14260000 -0.89750000
H -1.34490000 -1.15050000 0.87870000
H 2.52280000 0.97240000 -0.90270000
H 2.54320000 0.97950000 0.87180000
H 3.38380000 -0.30020000 -0.02020000
H -2.37530000 0.89200000 -0.81230000
18
Properties=species:S:1:pos:R:3 REF_energy=-0.07415479078111753
O 3.06640000 0.24700000 -0.02150000
C -0.63490000 -0.39690000 0.02560000
C 0.67620000 0.38590000 0.01880000
C -1.84220000 0.54020000 0.00300000
C 1.88380000 -0.54040000 -0.00140000
C -3.14930000 -0.23590000 -0.02460000
H -0.67900000 -1.03440000 0.91690000
H -0.67000000 -1.05970000 -0.84770000
H 0.73300000 1.04060000 0.89750000
H 0.71340000 1.05110000 -0.85310000
H -1.82610000 1.18910000 0.88630000
H -1.79330000 1.19040000 -0.87820000
H 1.88050000 -1.18800000 -0.88390000
H 1.90950000 -1.17180000 0.89200000
H -3.21090000 -0.86950000 -0.91510000
H -3.24490000 -0.87460000 0.85930000
H -3.99920000 0.45360000 -0.03900000
H 3.05060000 0.78040000 -0.83440000
21
Properties=species:S:1:pos:R:3 REF_energy=-0.08658929935766757
O 3.69230000 0.35970000 0.00180000
C 0.02870000 -0.47330000 0.00290000
C -1.26010000 0.35360000 0.01580000
C 1.29710000 0.37840000 0.01750000
C -2.52940000 -0.49920000 0.02600000
C 2.55050000 -0.48550000 -0.02930000
C -3.77900000 0.36630000 -0.03470000
H 0.03230000 -1.11300000 -0.88840000
H 0.03350000 -1.14220000 0.87240000
H -1.25870000 1.00840000 0.89610000
H -1.27000000 1.00800000 -0.86470000
H 1.31590000 1.00810000 0.91560000
H 1.29950000 1.06980000 -0.83410000
H -2.52410000 -1.18280000 -0.83080000
H -2.55580000 -1.11440000 0.93270000
H 2.59960000 -1.17030000 0.82320000
H 2.58750000 -1.07480000 -0.95050000
H -4.67540000 -0.26160000 -0.02400000
H -3.82850000 1.04420000 0.82340000
H -3.79640000 0.96730000 -0.94950000
H 3.66760000 0.85640000 0.83740000
24
Properties=species:S:1:pos:R:3 REF_energy=-0.09899774085651925
O -4.32450000 0.30410000 -0.02120000
C 0.59160000 0.42670000 0.03980000
C -0.64730000 -0.47100000 0.01290000
C 1.90890000 -0.35410000 0.04960000
C -1.93050000 0.35810000 -0.01970000
C 3.14730000 0.54210000 0.00210000
C -3.17040000 -0.52470000 -0.00460000
C 4.42500000 -0.28120000 -0.05890000
H 0.55340000 1.07460000 0.92430000
H 0.57490000 1.08660000 -0.83660000
H -0.64680000 -1.11860000 0.89790000
H -0.60920000 -1.12460000 -0.86690000
H 1.94820000 -0.98280000 0.94770000
H 1.92450000 -1.03320000 -0.81220000
H -1.94510000 0.99630000 -0.91200000
H -1.96290000 1.04160000 0.83810000
H 3.09940000 1.19580000 -0.87640000
H 3.17140000 1.18800000 0.88720000
H -3.20540000 -1.13790000 0.90100000
H -3.20290000 -1.18820000 -0.87450000
H 4.51700000 -0.92780000 0.81960000
H 5.29860000 0.37740000 -0.08910000
H 4.44370000 -0.91160000 -0.95370000
H -4.30110000 0.82380000 -0.84280000
27
Properties=species:S:1:pos:R:3 REF_energy=-0.11141496259592021
O 4.94420000 -0.39760000 -0.04630000
C 0.02730000 -0.35980000 0.07380000
C -1.26460000 0.46240000 0.05830000
C 1.29420000 0.49580000 0.00440000
C -2.53190000 -0.39500000 0.05320000
C 2.55000000 -0.37470000 -0.00050000
C -3.78740000 0.47410000 -0.03560000
C 3.81750000 0.46790000 -0.02780000
C -5.04920000 -0.37300000 -0.07960000
H 0.05030000 -0.97250000 0.98350000
H 0.01760000 -1.05470000 -0.77530000
H -1.27840000 1.12760000 0.93060000
H -1.26320000 1.10630000 -0.83010000
H 1.31980000 1.17830000 0.86230000
H 1.27140000 1.11410000 -0.90100000
H -2.56560000 -1.00620000 0.96290000
H -2.50250000 -1.08450000 -0.79920000
H 2.53790000 -1.04810000 -0.86660000
H 2.56650000 -1.02400000 0.88380000
H -3.83470000 1.14830000 0.82740000
H -3.74540000 1.09980000 -0.93470000
H 3.85530000 1.10970000 -0.91370000
H 3.88800000 1.10050000 0.86220000
H -5.13860000 -0.99020000 0.82010000
H -5.04750000 -1.03460000 -0.95170000
H -5.93420000 0.26800000 -0.14110000
H 4.89010000 -0.93320000 -0.85610000
30
Properties=species:S:1:pos:R:3 REF_energy=-0.12383954073899361
O 5.61080000 0.31850000 -0.05000000
C -0.60740000 -0.41950000 0.06140000
C 0.67360000 0.41720000 0.04430000
C -1.88650000 0.42300000 0.05410000
C 1.91760000 -0.47440000 0.02000000
C -3.20270000 -0.36050000 0.04830000
C 3.19960000 0.36210000 -0.02670000
C -4.44230000 0.53200000 -0.01570000
C 4.45320000 -0.50420000 -0.02500000
C -5.71590000 -0.29410000 -0.11080000
H -0.60990000 -1.06300000 0.94970000
H -0.61740000 -1.08470000 -0.81090000
H 0.69980000 1.06610000 0.92780000
H 0.67160000 1.06970000 -0.83710000
H -1.87680000 1.08510000 0.92930000
H -1.86600000 1.07710000 -0.82700000
H 1.92860000 -1.11400000 0.91080000
H 1.88200000 -1.13590000 -0.85400000
H -3.25040000 -0.98840000 0.94650000
H -3.20230000 -1.04060000 -0.81260000
H 3.20260000 1.00080000 -0.91870000
H 3.23130000 1.04620000 0.83060000
H -4.48630000 1.16980000 0.87450000
H -4.37920000 1.19400000 -0.88700000
H 4.49770000 -1.13760000 0.86680000
H 4.47860000 -1.15190000 -0.90670000
H -6.59080000 0.36230000 -0.15200000
H -5.71480000 -0.91530000 -1.01210000
H -5.82370000 -0.94990000 0.75900000
H 5.59010000 0.87810000 0.74500000
