5
Properties=species:S:1:pos:R:3 REF_energy=-0.02270814970649712
C 0.00000000 0.00000000 0.00000000
H 0.55410000 0.79960000 0.49650000
H 0.68330000 -0.81340000 -0.25360000
H -0.77820000 -0.37350000 0.66920000
H -0.45930000 0.38740000 -0.91210000
8
Properties=species:S:1:pos:R:3 REF_energy=-0.03579610133285238
C -0.75600000 0.00000000 0.00000000
C 0.75600000 0.00000000 0.00000000
H -1.14040000 0.65860000 0.78450000
H -1.14040000 0.35010000 -0.96260000
H -1.14050000 -1.00870000 0.17810000
H 1.14040000 -0.35010000 0.96260000
H 1.14050000 1.00870000 -0.17810000
H 1.14040000 -0.65860000 -0.78450000
11
Properties=species:S:1:pos:R:3 REF_energy=-0.04823921175338336
C 0.00000000 -0.56890000 0.00000000
C -1.25710000 0.28440000 0.00000000
C 1.25710000 0.28450000 0.00000000
H 0.00000000 -1.21830000 0.88240000
H 0.00000000 -1.21830000 -0.88240000
H -1.29690000 0.92440000 0.88730000
H -1.29670000 0.92450000 -0.88720000
H -2.14750000 -0.35200000 -0.00010000
H 2.14750000 -0.35200000 0.00000000
H 1.29680000 0.92450000 0.88720000
H 1.29680000 0.92450000 -0.88720000
14
Properties=species:S:1:pos:R:3 REF_energy=-0.060679074569478963
C -0.56300000 0.51600000 0.00710000
C 0.56300000 -0.51590000 0.00710000
C -1.92930000 -0.15060000 -0.00710000
C 1.92940000 0.15050000 -0.00710000
H -0.47240000 1.16660000 -0.87060000
H -0.48250000 1.15510000 0.89400000
H 0.48250000 -1.15510000 0.89400000
H 0.47230000 -1.16650000 -0.87060000
H -2.05420000 -0.77100000 -0.90030000
H -2.06510000 -0.78560000 0.87420000
H -2.72030000 0.60600000 -0.00580000
H 2.05420000 0.77090000 -0.90030000
H 2.72020000 -0.60620000 -0.00590000
H 2.06520000 0.78540000 0.87430000
17
Properties=species:S:1:pos:R:3 REF_energy=-0.0731034603292735
C 0.00000000 0.34780000 -0.02280000
C 1.26210000 -0.51400000 -0.00010000
C -1.26210000 -0.51400000 -0.00010000
C 2.51980000 0.34010000 0.01150000
C -2.51990000 0.34010000 0.01150000
H 0.00000000 0.97830000 -0.92020000
H 0.00000000 1.02010000 0.84390000
H 1.28000000 -1.17100000 -0.87750000
H 1.25830000 -1.15760000 0.88740000
H -1.27990000 -1.17100000 -0.87740000
H -1.25820000 -1.15760000 0.88730000
H 2.54840000 0.98470000 0.89580000
H 2.57080000 0.97520000 -0.87880000
H 3.41010000 -0.29640000 0.02640000
H -2.54840000 0.98480000 0.89580000
H -3.41010000 -0.29640000 0.02630000
H -2.57090000 0.97500000 -0.87870000
20
Properties=species:S:1:pos:R:3 REF_energy=-0.08551721262073353
C 0.65580000 0.39350000 0.00010000
C -0.65580000 -0.39320000 0.02270000
C 1.86490000 -0.54130000 -0.01140000
C -1.86500000 0.54140000 0.00010000
C 3.17090000 0.23690000 -0.00010000
C -3.17090000 -0.23720000 -0.01150000
H 0.68400000 1.03880000 -0.88650000
H 0.70450000 1.04890000 0.87830000
H -0.69300000 -1.02250000 0.92030000
H -0.69520000 -1.06420000 -0.84410000
H 1.83370000 -1.20150000 0.86330000
H 1.83340000 -1.18030000 -0.90150000
H -1.84420000 1.19830000 0.87750000
H -1.82340000 1.18370000 -0.88740000
H 3.24850000 0.88560000 -0.87840000
H 4.02220000 -0.45100000 -0.00960000
H 3.24830000 0.86070000 0.89610000
H -3.23730000 -0.87910000 -0.89580000
H -3.25920000 -0.86810000 0.87880000
H -4.02210000 0.45050000 -0.02630000
23
Properties=species:S:1:pos:R:3 REF_energy=-0.09795727712955671
C 0.01210000 -0.50580000 0.02050000
C -1.25610000 0.35070000 0.00910000
C 1.26960000 0.36640000 0.02690000
C -2.54460000 -0.47400000 -0.02160000
C 2.53790000 -0.48640000 -0.00030000
C -3.80810000 0.37230000 -0.00710000
C 3.78910000 0.37680000 -0.02750000
H 0.00850000 -1.15620000 0.90340000
H 0.01940000 -1.15710000 -0.86180000
H -1.23760000 1.01530000 -0.86360000
H -1.26390000 0.99510000 0.89710000
H 1.27220000 1.00300000 0.91990000
H 1.25800000 1.03230000 -0.84460000
H -2.55050000 -1.10440000 -0.91870000
H -2.56310000 -1.14990000 0.84160000
H 2.56740000 -1.13740000 0.88120000
H 2.53170000 -1.13590000 -0.88340000
H -4.69530000 -0.26790000 -0.03070000
H -3.84270000 1.03600000 -0.87680000
H -3.85500000 0.98770000 0.89680000
H 3.80590000 1.01570000 -0.91630000
H 3.84250000 1.01800000 0.85810000
H 4.68390000 -0.25330000 -0.04530000
26
Properties=species:S:1:pos:R:3 REF_energy=-0.11036142287941564
C -0.60840000 -0.42860000 0.03870000
C 0.63200000 0.46770000 0.02880000
C -1.92510000 0.35340000 0.03070000
C 1.91620000 -0.36460000 0.01340000
C -3.16350000 -0.54160000 -0.03360000
C 3.15660000 0.52750000 -0.03510000
C -4.44290000 0.28100000 -0.02640000
C 4.43520000 -0.29480000 -0.01660000
H -0.58220000 -1.07680000 0.92330000
H -0.58140000 -1.08830000 -0.83770000
H 0.62210000 1.11780000 0.91190000
H 0.60440000 1.11880000 -0.85330000
H -1.93070000 1.03540000 -0.82870000
H -1.97370000 0.97900000 0.93060000
H 1.91260000 -1.03310000 -0.85620000
H 1.95220000 -0.99840000 0.90790000
H -3.16980000 -1.22750000 0.82140000
H -3.13200000 -1.15420000 -0.94190000
H 3.15750000 1.21090000 0.82210000
H 3.13690000 1.14370000 -0.94150000
H -4.51830000 0.88150000 0.88580000
H -4.48000000 0.95640000 -0.88710000
H -5.31630000 -0.37700000 -0.07290000
H 5.30930000 0.36280000 -0.05300000
H 4.48070000 -0.96840000 -0.87840000
H 4.50110000 -0.89740000 0.89480000
29
Properties=species:S:1:pos:R:3 REF_energy=-0.12277962162535094
C 0.00540000 0.37340000 -0.03880000
C -1.25420000 -0.49590000 -0.02700000
C 1.27250000 -0.48280000 -0.00380000
C -2.52040000 0.36360000 -0.02890000
C 2.53100000 0.38610000 0.01820000
C -3.81120000 -0.45720000 0.01430000
C 3.79720000 -0.47000000 0.01920000
C -5.07150000 0.39350000 0.03970000
C 5.05130000 0.38940000 0.00700000
H 0.01020000 1.00270000 -0.93710000
H -0.00540000 1.04610000 0.82750000
H -1.25710000 -1.15590000 -0.90270000
H -1.25060000 -1.13750000 0.86240000
H 1.25780000 -1.12750000 0.88340000
H 1.29340000 -1.14060000 -0.88120000
H -2.52760000 0.99660000 -0.92490000
H -2.49940000 1.03920000 0.83530000
H 2.52010000 1.02910000 0.90680000
H 2.53570000 1.04600000 -0.85800000
H -3.80250000 -1.10070000 0.90220000
H -3.84840000 -1.12050000 -0.85810000
H 3.80990000 -1.11450000 0.90580000
H 3.80430000 -1.12600000 -0.85900000
H -5.13370000 1.02480000 -0.85220000
H -5.96050000 -0.24410000 0.06940000
H -5.08680000 1.04190000 0.92130000
H 5.94430000 -0.24330000 0.00920000
H 5.09140000 1.03700000 0.88860000
H 5.08520000 1.02150000 -0.88600000
32
Properties=species:S:1:pos:R:3 REF_energy=-0.13520894313743836
C 0.66090000 0.38790000 0.06610000
C -0.64290000 -0.41610000 0.09720000
C 1.91410000 -0.48940000 0.02400000
C -1.89620000 0.46250000 0.06350000
C 3.18580000 0.36180000 0.00710000
C -3.19920000 -0.34300000 0.03420000
C 4.43810000 -0.51100000 -0.07350000
C -4.44980000 0.53050000 -0.07480000
C 5.70500000 0.32950000 -0.05680000
C -5.71580000 -0.31290000 -0.08700000
H 0.65450000 1.04610000 -0.81160000
H 0.70030000 1.03790000 0.94900000
H -0.66180000 -1.04070000 0.99860000
H -0.66160000 -1.09850000 -0.76160000
H 1.92620000 -1.15400000 0.89640000
H 1.88370000 -1.12630000 -0.86820000
H -1.89900000 1.12430000 0.93830000
H -1.85640000 1.10840000 -0.82240000
H 3.16090000 1.04550000 -0.85030000
H 3.22470000 0.98000000 0.91230000
H -3.17210000 -1.03740000 -0.81490000
H -3.26020000 -0.95590000 0.94210000
H 4.46020000 -1.20940000 0.77110000
H 4.41540000 -1.11110000 -0.99050000
H -4.48870000 1.22890000 0.76910000
H -4.40520000 1.12990000 -0.99130000
H 6.58790000 -0.31450000 -0.11620000
H 5.77420000 0.91670000 0.86450000
H 5.72940000 1.01900000 -0.90670000
H -6.59820000 0.32990000 -0.16550000
H -5.72020000 -1.00150000 -0.93790000
H -5.80440000 -0.90080000 0.83200000
