13
Properties=species:S:1:pos:R:3 REF_energy=-0.04233073826218625
O 1.45730000 -1.04380000 0.26820000
O 1.24920000 1.11650000 -0.40470000
N -1.41050000 1.15070000 0.18210000
C -0.70850000 -0.11360000 0.39370000
C -1.33450000 -1.20000000 -0.47020000
C 0.74700000 0.09030000 0.03080000
H -0.76660000 -0.37370000 1.45580000
H -0.85800000 -2.16950000 -0.28780000
H -2.40230000 -1.31270000 -0.25210000
H -1.22480000 -0.97970000 -1.53840000
H -2.39160000 1.04200000 0.43760000
H -1.40710000 1.38750000 -0.80990000
H 2.40620000 -0.93410000 0.04470000
26
Properties=species:S:1:pos:R:3 REF_energy=-0.0844594831206873
O -2.30270000 -1.95350000 -0.20400000
O -3.44360000 -0.53150000 1.14650000
N -2.89170000 1.60210000 -0.33390000
N 1.96420000 -0.23570000 0.04970000
N 3.91810000 -1.41670000 -0.34970000
N 4.13680000 0.76270000 0.28050000
C -0.76980000 0.49290000 -0.86970000
C -0.17130000 0.87480000 0.49210000
C -2.29880000 0.35600000 -0.81310000
C 1.34470000 1.03260000 0.43730000
C -2.74590000 -0.72070000 0.15860000
C 3.25990000 -0.26300000 0.00560000
H -0.33710000 -0.45370000 -1.21460000
H -0.49870000 1.25400000 -1.61250000
H -0.59460000 1.82110000 0.84740000
H -0.41860000 0.10880000 1.23690000
H -2.70190000 0.12020000 -1.80380000
H 1.60080000 1.82030000 -0.28170000
H 1.69490000 1.34010000 1.43010000
H -3.90800000 1.54210000 -0.38760000
H -2.62120000 2.36850000 -0.94920000
H -2.60250000 -2.64770000 0.42080000
H 3.40650000 -2.26110000 -0.58180000
H 4.93050000 -1.45890000 -0.39000000
H 5.13950000 0.62510000 0.21270000
H 3.82080000 1.68570000 0.55610000
17
Properties=species:S:1:pos:R:3 REF_energy=-0.04777501580006116
O 0.69990000 -1.59090000 0.89560000
O 2.01890000 -0.91670000 -0.82030000
O -2.14540000 -0.60980000 -1.06030000
N 1.78050000 1.68340000 0.08540000
N -2.10320000 0.15650000 1.10810000
C 0.69900000 0.74360000 0.39060000
C -0.51740000 1.06660000 -0.47970000
C 1.22750000 -0.64570000 0.07400000
C -1.65970000 0.11300000 -0.19340000
H 0.48220000 0.81270000 1.46110000
H -0.86910000 2.08890000 -0.29450000
H -0.27320000 0.98670000 -1.54660000
H 2.03560000 1.61930000 -0.89940000
H 2.61350000 1.44030000 0.62000000
H -1.71550000 0.79050000 1.79900000
H -2.86600000 -0.43700000 1.41700000
H 1.03410000 -2.48820000 0.68230000
16
Properties=species:S:1:pos:R:3 REF_energy=-0.04246744183303486
O 0.87650000 -1.74770000 0.46120000
O -2.54680000 0.20850000 -1.01100000
O 2.00790000 -0.58910000 -1.12720000
O -1.80210000 -0.77920000 0.89870000
N 1.74450000 1.67880000 0.40550000
C 0.72720000 0.63750000 0.54990000
C -0.59570000 1.11590000 -0.06130000
C 1.27480000 -0.59800000 -0.14700000
C -1.68640000 0.07320000 0.03120000
H 0.60510000 0.41580000 1.61660000
H -0.43910000 1.35300000 -1.12190000
H -0.95530000 2.02030000 0.44260000
H 2.59320000 1.39920000 0.89650000
H 1.42470000 2.53410000 0.85860000
H 1.24030000 -2.54170000 0.01460000
H -3.26650000 -0.45730000 -0.97970000
14
Properties=species:S:1:pos:R:3 REF_energy=-0.05170499262189998
S 2.22680000 1.12310000 0.04360000
O -1.36490000 1.17180000 0.91250000
O -1.17660000 0.49560000 -1.24460000
N -0.43510000 -1.98340000 0.15920000
C 0.12620000 -0.65920000 0.43410000
C 1.49250000 -0.51940000 -0.23990000
C -0.86900000 0.37160000 -0.06490000
H 0.23750000 -0.55150000 1.52010000
H 2.18900000 -1.27040000 0.14850000
H 1.41570000 -0.66340000 -1.32350000
H -1.29360000 -2.10830000 0.69470000
H 0.20950000 -2.70230000 0.48600000
H 1.33850000 1.82380000 -0.67620000
H -1.99190000 1.83740000 0.55740000
20
Properties=species:S:1:pos:R:3 REF_energy=-0.06122956502210264
O -2.13890000 1.63700000 0.50990000
O -2.67730000 0.24750000 -1.19730000
O 2.90390000 0.25510000 1.03510000
N -1.47890000 -1.89220000 -0.02910000
N 3.24410000 0.19320000 -1.23850000
C 0.13380000 -0.23550000 0.87580000
C -1.34240000 -0.60860000 0.65900000
C 1.00320000 -0.14580000 -0.38390000
C -2.11580000 0.43560000 -0.12570000
C 2.46830000 0.11360000 -0.10510000
H 0.19040000 0.72360000 1.40710000
H 0.57830000 -0.97640000 1.55450000
H -1.83190000 -0.70410000 1.63550000
H 0.95000000 -1.08210000 -0.95090000
H 0.63390000 0.65680000 -1.03310000
H -1.13600000 -1.81860000 -0.98580000
H -2.46480000 -2.14200000 -0.09880000
H 2.85600000 0.07800000 -2.16930000
H 4.24140000 0.36970000 -1.17810000
H -2.64500000 2.30810000 0.00410000
19
Properties=species:S:1:pos:R:3 REF_energy=-0.05559119889755859
O 1.86730000 1.47400000 -1.00530000
O -3.11630000 0.70710000 1.07940000
O 2.58780000 0.74100000 1.01540000
O -2.91840000 -0.23470000 -0.97890000
N 1.68060000 -1.77970000 0.58940000
C -0.12380000 -0.66490000 -0.71460000
C 1.38560000 -0.79700000 -0.45120000
C -0.96090000 -0.08320000 0.42790000
C 2.01370000 0.52410000 -0.04400000
C -2.41560000 0.11320000 0.08180000
H -0.52820000 -1.64860000 -0.98940000
H -0.26680000 -0.03370000 -1.60220000
H 1.88360000 -1.12680000 -1.37080000
H -0.91290000 -0.74860000 1.29690000
H -0.56430000 0.89670000 0.71560000
H 2.68790000 -1.92450000 0.64940000
H 1.27860000 -2.68050000 0.33270000
H 2.27130000 2.32750000 -0.73980000
H -4.06150000 0.82350000 0.84410000
10
Properties=species:S:1:pos:R:3 REF_energy=-0.030631246987729233
O -1.64870000 0.65710000 -0.01040000
O -0.48370000 -1.29340000 -0.00050000
N 1.90060000 -0.08120000 -0.00900000
C 0.73410000 0.78670000 0.00790000
C -0.50230000 -0.06910000 0.01200000
H 0.73260000 1.42150000 -0.88240000
H 0.74640000 1.40880000 0.90690000
H 1.87430000 -0.68440000 -0.83010000
H 1.88870000 -0.69690000 0.80310000
H -2.44470000 0.08390000 -0.02600000
20
Properties=species:S:1:pos:R:3 REF_energy=-0.052533572189072286
O -1.06890000 -1.69190000 -0.76600000
O -2.49460000 -1.12230000 0.90380000
N 1.67970000 0.14090000 1.16240000
N -2.74940000 1.36930000 -0.21780000
N 2.82010000 -0.33650000 -0.68250000
C -0.35790000 1.30040000 0.32170000
C -1.50620000 0.63970000 -0.45670000
C 0.96710000 0.60200000 0.11950000
C -1.74980000 -0.79170000 -0.01020000
C 1.65560000 0.31500000 -1.00310000
C 2.80430000 -0.42490000 0.62900000
H -0.59420000 1.31960000 1.39460000
H -0.24330000 2.34500000 0.00390000
H -1.31240000 0.64160000 -1.53550000
H 1.44410000 0.19430000 2.14500000
H 1.39920000 0.52990000 -2.03010000
H -2.64190000 2.33460000 -0.52800000
H -2.93580000 1.41980000 0.78350000
H 3.56550000 -0.88100000 1.24580000
H -1.24150000 -2.61420000 -0.48010000
22
Properties=species:S:1:pos:R:3 REF_energy=-0.07818447193417044
O 1.73180000 1.07090000 -1.22280000
O 2.25940000 0.47850000 0.90140000
N 0.62840000 -1.61120000 0.92650000
C -0.84990000 -0.19660000 -0.51130000
C 0.55990000 -0.80120000 -0.29320000
C -1.32840000 0.71620000 0.64250000
C -1.89090000 -1.29490000 -0.77940000
C -2.70520000 1.33750000 0.44850000
C 1.59490000 0.30070000 -0.11210000
H -0.80620000 0.42400000 -1.41710000
H 0.85840000 -1.42000000 -1.14650000
H -0.61020000 1.53380000 0.77600000
H -1.34720000 0.15960000 1.58650000
H -1.52420000 -1.99570000 -1.53740000
H -2.11860000 -1.86500000 0.12730000
H -2.82570000 -0.87380000 -1.16250000
H -2.76820000 1.85890000 -0.51180000
H -2.90270000 2.06530000 1.24240000
H -3.49750000 0.58470000 0.49110000
H 0.47260000 -1.03280000 1.75050000
H 1.56320000 -2.00560000 1.02600000
H 2.40770000 1.77120000 -1.10080000
22
Properties=species:S:1:pos:R:3 REF_energy=-0.07731490741245683
O 1.10330000 -1.28600000 1.26730000
O 1.55370000 -1.05090000 -0.94260000
N 1.73130000 1.75450000 0.01200000
C -1.80210000 0.19050000 -0.40870000
C -0.56430000 1.07930000 -0.64940000
C 0.62490000 0.84080000 0.29480000
C -2.34230000 0.31830000 1.01600000
C -1.45090000 -1.27190000 -0.69840000
C 1.14640000 -0.57470000 0.10900000
H -2.58240000 0.50840000 -1.11140000
H -0.24450000 0.95730000 -1.69370000
H -0.87980000 2.12730000 -0.55310000
H 0.32670000 0.98800000 1.33750000
H -1.64880000 -0.08030000 1.76290000
H -2.54470000 1.36610000 1.26100000
H -3.28280000 -0.23470000 1.11550000
H -0.85900000 -1.38710000 -1.61090000
H -0.99140000 -1.79630000 0.13980000
H -2.38660000 -1.81670000 -0.88230000
H 1.41540000 2.71590000 0.13720000
H 1.99860000 1.67850000 -0.96940000
H 1.43470000 -2.20130000 1.14600000
24
Properties=species:S:1:pos:R:3 REF_energy=-0.08590094820291694
O -2.79080000 -1.62350000 -0.33180000
O -3.56370000 0.26150000 0.66090000
N -1.50260000 1.76900000 -0.07180000
N 4.85790000 -0.39420000 0.29180000
C 1.16740000 0.32920000 -0.30510000
C -0.15550000 -0.29580000 0.15860000
C 2.40660000 -0.38260000 0.24350000
C -1.41350000 0.35330000 -0.43230000
C 3.68830000 0.30060000 -0.23310000
C -2.69420000 -0.31750000 0.01950000
H 1.20030000 1.38180000 0.00090000
H 1.20160000 0.31620000 -1.40170000
H -0.20450000 -0.26200000 1.25540000
H -0.14790000 -1.36140000 -0.10510000
H 2.39820000 -1.43060000 -0.08100000
H 2.36890000 -0.38320000 1.34010000
H -1.38290000 0.28910000 -1.52630000
H 3.70770000 1.34450000 0.09850000
H 3.73260000 0.29700000 -1.32750000
H -1.56740000 1.86760000 0.94050000
H -2.35250000 2.17500000 -0.46090000
H 4.84170000 -0.37240000 1.31060000
H 5.70140000 0.10290000 0.00880000
H -3.62730000 -2.02690000 -0.01600000
20
Properties=species:S:1:pos:R:3 REF_energy=-0.07500863525321799
S 2.28580000 0.97010000 0.27970000
O -1.16070000 1.64020000 0.69210000
O -2.59050000 0.36930000 -0.52400000
N -1.36280000 -1.87750000 0.49860000
C 0.41560000 -0.81110000 -0.80130000
C -0.56620000 -0.65330000 0.36860000
C 1.26560000 0.42230000 -1.12080000
C -1.54860000 0.47540000 0.11100000
C 3.26170000 -0.53550000 0.49600000
H 1.05960000 -1.68320000 -0.63510000
H -0.15400000 -1.04350000 -1.71280000
H -0.05120000 -0.48390000 1.31940000
H 0.62820000 1.25910000 -1.42380000
H 1.92390000 0.20900000 -1.97000000
H -1.96320000 -1.80820000 1.31970000
H -0.74420000 -2.67010000 0.66690000
H 2.66380000 -1.32560000 0.95620000
H 4.09900000 -0.31830000 1.16530000
H 3.66900000 -0.87940000 -0.45830000
H -1.80510000 2.36190000 0.53020000
23
Properties=species:S:1:pos:R:3 REF_energy=-0.06718404062877892
O -1.56060000 -1.54800000 -1.03720000
O -3.18630000 -1.02360000 0.45540000
N -2.79450000 1.63260000 -0.11180000
C -0.60900000 0.98120000 0.79050000
C -1.66520000 0.72410000 -0.29570000
C 0.75930000 0.46120000 0.41410000
C 1.10820000 -0.83550000 0.75370000
C 1.63700000 1.29130000 -0.26330000
C -2.22590000 -0.68590000 -0.22490000
C 2.37080000 -1.31570000 0.40620000
C 2.89960000 0.81090000 -0.61090000
C 3.26650000 -0.49250000 -0.27610000
H -0.91800000 0.53780000 1.74710000
H -0.51610000 2.05890000 0.98590000
H -1.26540000 0.89430000 -1.30200000
H 0.41930000 -1.48400000 1.28720000
H 1.35950000 2.30680000 -0.53070000
H -2.47440000 2.59680000 -0.19770000
H -3.15870000 1.54500000 0.83680000
H 2.65670000 -2.33050000 0.66720000
H 3.59700000 1.45160000 -1.14280000
H 4.24960000 -0.86650000 -0.54680000
H -1.93620000 -2.45310000 -0.99560000
17
Properties=species:S:1:pos:R:3 REF_energy=-0.056635851998596554
O 2.16170000 -0.95090000 -0.11190000
O 1.56880000 1.21640000 -0.49530000
N -0.78070000 0.93140000 0.77700000
C 0.08340000 -0.24760000 0.72510000
C -0.72350000 -1.31710000 -0.00310000
C -1.98880000 -0.61060000 -0.47520000
C -1.64990000 0.86350000 -0.39330000
C 1.32890000 0.11490000 -0.02350000
H 0.36250000 -0.55220000 1.73890000
H -0.98730000 -2.14290000 0.66710000
H -0.19190000 -1.74110000 -0.86240000
H -2.27980000 -0.91570000 -1.48480000
H -2.81870000 -0.84850000 0.20180000
H -1.12040000 1.19320000 -1.29450000
H -2.54240000 1.48310000 -0.26940000
H -0.25090000 1.80030000 0.80230000
H 2.98370000 -0.73410000 -0.60140000
14
Properties=species:S:1:pos:R:3 REF_energy=-0.043096734978998796
O 1.91640000 1.03060000 -0.20640000
O -0.91470000 1.47300000 0.69280000
O -1.68760000 0.04390000 -0.89560000
N -0.17830000 -1.96140000 0.31450000
C 0.24990000 -0.57190000 0.46740000
C 1.50430000 -0.32290000 -0.36530000
C -0.89000000 0.30870000 -0.00750000
H 0.43510000 -0.37070000 1.52850000
H 2.32930000 -0.97350000 -0.05560000
H 1.31980000 -0.48580000 -1.43280000
H -0.38310000 -2.16140000 -0.66380000
H -1.04210000 -2.11820000 0.83210000
H 2.10220000 1.17060000 0.73780000
H -1.64320000 2.06070000 0.39910000
17
Properties=species:S:1:pos:R:3 REF_energy=-0.05462843806852158
O -1.71060000 -1.18470000 0.35810000
O 0.97580000 -1.68110000 0.13100000
O 2.02140000 0.15050000 -0.70070000
N 0.40530000 1.86690000 0.57430000
C -1.35440000 0.18800000 0.20430000
C 0.06640000 0.44880000 0.72850000
C -1.52550000 0.55140000 -1.26540000
C 1.12160000 -0.33980000 -0.03000000
H 0.14530000 0.16990000 1.78570000
H -2.07410000 0.77090000 0.79210000
H -1.32730000 1.60970000 -1.45790000
H -2.55180000 0.33760000 -1.58560000
H -0.87620000 -0.05310000 -1.90780000
H 1.30760000 2.05150000 1.01150000
H -0.27450000 2.43570000 1.07770000
H -1.60700000 -1.40930000 1.29850000
H 1.66410000 -2.18430000 -0.35400000
27
Properties=species:S:1:pos:R:3 REF_energy=-0.06804505155086327
O 1.47620000 -0.81540000 1.72820000
O 2.55980000 -1.94720000 0.08790000
N -1.64740000 2.00440000 0.54820000
N 3.87590000 0.36550000 -0.58320000
C 0.14750000 1.13230000 -0.42360000
C 1.50650000 0.98450000 -0.98300000
C -0.86670000 0.13490000 -0.38590000
C 2.56010000 0.48810000 0.04020000
C -1.98230000 0.70780000 0.22860000
C -0.36250000 2.27020000 0.15790000
C -0.94310000 -1.20450000 -0.81690000
C -3.17510000 0.00550000 0.43460000
C 2.20830000 -0.88520000 0.58600000
C -2.12980000 -1.91930000 -0.61760000
C -3.22740000 -1.32160000 -0.00120000
H 1.47240000 0.29410000 -1.83700000
H 1.83460000 1.94970000 -1.39270000
H 2.63910000 1.19020000 0.87890000
H 0.07230000 3.24490000 0.33040000
H -2.26200000 2.66390000 1.00510000
H -0.10010000 -1.68640000 -1.30350000
H -4.03010000 0.46990000 0.91430000
H -2.19480000 -2.95220000 -0.94900000
H 4.57150000 0.13480000 0.12550000
H 4.15490000 1.26570000 -0.97170000
H -4.13930000 -1.89530000 0.14340000
H 1.26170000 -1.70570000 2.07970000
24
Properties=species:S:1:pos:R:3 REF_energy=-0.06618718040879434
O -1.77270000 -1.63130000 -0.99310000
O 4.21830000 -0.63510000 -0.39470000
O -3.48010000 -1.15840000 0.42340000
N -3.23870000 1.49470000 -0.23510000
C -1.04930000 1.02100000 0.76330000
C -2.04790000 0.65530000 -0.34580000
C 0.36180000 0.57740000 0.45290000
C 0.78030000 -0.67980000 0.85530000
C 1.20770000 1.43730000 -0.22760000
C -2.51970000 -0.78460000 -0.23780000
C 2.08270000 -1.08910000 0.56900000
C 2.51010000 1.02800000 -0.51410000
C 2.94760000 -0.23530000 -0.11580000
H -1.36310000 0.59450000 1.72610000
H -1.03220000 2.10890000 0.91900000
H -1.62460000 0.81350000 -1.34450000
H 0.11580000 -1.35120000 1.39140000
H 0.87520000 2.42170000 -0.54400000
H -2.97770000 2.47370000 -0.34860000
H -3.62970000 1.41900000 0.70380000
H 2.41140000 -2.07540000 0.88530000
H 3.17900000 1.69730000 -1.04820000
H -2.09120000 -2.55680000 -0.92820000
H 4.34940000 -1.53390000 -0.04670000
19
Properties=species:S:1:pos:R:3 REF_energy=-0.06600975715984281
O -1.54500000 -1.47330000 -0.26340000
O -1.73080000 0.37630000 1.03010000
N -0.25610000 1.76730000 -0.85690000
C 1.38040000 0.01300000 -0.23070000
C -0.04640000 0.32430000 -0.74450000
C 1.73180000 -1.47740000 -0.16260000
C 1.65180000 0.68380000 1.12000000
C -1.18580000 -0.21390000 0.10800000
H 2.08430000 0.45710000 -0.94950000
H -0.15920000 -0.09710000 -1.75160000
H 1.55670000 -1.95850000 -1.13040000
H 1.12880000 -1.99480000 0.59050000
H 2.78660000 -1.61680000 0.09670000
H 0.98860000 0.29700000 1.90070000
H 2.68240000 0.49310000 1.44030000
H 1.52870000 1.77010000 1.07170000
H -1.14150000 1.95070000 -1.32790000
H 0.46790000 2.17410000 -1.44810000
H -2.27480000 -1.82280000 0.29120000
