12
Properties=species:S:1:pos:R:3 REF_energy=-0.04055715927440828
O -2.40870000 0.09560000 -0.00310000
O 2.40870000 0.09550000 0.00270000
O 0.00000000 1.27710000 0.00030000
C 0.00000000 0.04700000 -0.00020000
C -1.28370000 -0.75760000 0.00570000
C 1.28370000 -0.75750000 -0.00530000
H -1.31780000 -1.36640000 0.91310000
H -1.31820000 -1.40510000 -0.87490000
H 1.31780000 -1.36710000 -0.91210000
H 1.31820000 -1.40400000 0.87590000
H -2.40820000 0.57150000 -0.85120000
H 2.40820000 0.57230000 0.85030000
14
Properties=species:S:1:pos:R:3 REF_energy=-0.051300939184444116
O -1.50520000 1.00960000 -0.19730000
O 1.07480000 1.23740000 0.40540000
C -0.72330000 -0.15620000 -0.40130000
C 0.72420000 0.14280000 -0.03630000
C -1.29600000 -1.26670000 0.46090000
C 1.72550000 -0.96690000 -0.23140000
H -0.77650000 -0.42290000 -1.46180000
H -1.20490000 -1.02230000 1.52540000
H -0.78660000 -2.21900000 0.28580000
H -2.36340000 -1.40190000 0.25560000
H 1.60710000 -1.71650000 0.55400000
H 2.73850000 -0.55730000 -0.18430000
H 1.58490000 -1.42290000 -1.21470000
H -1.19450000 1.68340000 -0.82600000
25
Properties=species:S:1:pos:R:3 REF_energy=-0.10227895234207574
N -1.95620000 -0.10730000 1.33370000
C 0.90480000 -0.50580000 0.17660000
C -0.23590000 0.35940000 -0.40820000
C -1.67130000 -0.11280000 -0.10080000
C 2.29310000 0.05680000 -0.19890000
C 0.81620000 -1.96120000 -0.29640000
C -2.68740000 0.79370000 -0.79740000
C 2.53670000 1.47730000 0.29150000
H 0.82510000 -0.50140000 1.27110000
H -0.13440000 1.38800000 -0.04050000
H -0.11040000 0.41120000 -1.49830000
H -1.81530000 -1.12930000 -0.48080000
H 2.42930000 0.02700000 -1.28710000
H 3.06750000 -0.58970000 0.23280000
H 1.67220000 -2.54120000 0.06560000
H -0.08450000 -2.45100000 0.08520000
H 0.80420000 -2.02300000 -1.38970000
H -3.71260000 0.45290000 -0.61330000
H -2.52940000 0.78800000 -1.88140000
H -2.60810000 1.83080000 -0.45210000
H 2.32680000 1.56680000 1.36190000
H 1.92220000 2.20300000 -0.24870000
H 3.58360000 1.75360000 0.12820000
H -2.92850000 -0.36760000 1.49450000
H -1.85000000 0.83650000 1.70420000
18
Properties=species:S:1:pos:R:3 REF_energy=-0.060819937952768965
O 1.03060000 1.63990000 -0.72430000
O 1.84540000 0.55150000 1.09050000
N 1.28940000 -1.84690000 -0.14640000
N -3.12710000 0.21390000 0.37890000
C -0.92340000 -0.81890000 0.07220000
C 0.48640000 -0.67870000 -0.51600000
C -1.80290000 0.40350000 -0.20360000
C 1.20160000 0.53570000 0.04870000
H -1.40180000 -1.71640000 -0.34240000
H -0.85790000 -0.96760000 1.15930000
H 0.45120000 -0.60510000 -1.60860000
H -1.37110000 1.30520000 0.24000000
H -1.89710000 0.56730000 -1.28250000
H 2.19820000 -1.79550000 -0.60580000
H 0.84240000 -2.69290000 -0.49820000
H -3.57110000 -0.60380000 -0.03720000
H -3.71720000 1.01050000 0.14250000
H 1.48390000 2.42380000 -0.34710000
18
Properties=species:S:1:pos:R:3 REF_energy=-0.06340617968451423
O 2.30150000 0.28590000 0.25560000
C -0.95110000 -1.01080000 -0.05100000
C 0.11460000 0.87010000 -0.64560000
C -0.72190000 -0.20780000 -1.33430000
C -1.56350000 0.06250000 0.87350000
C -0.81220000 1.35040000 0.47480000
C 0.49030000 -1.33100000 0.40230000
C 1.14230000 -0.01930000 0.02460000
H -1.57630000 -1.89940000 -0.15960000
H 0.54420000 1.63460000 -1.29140000
H -1.64800000 0.18210000 -1.76980000
H -0.16660000 -0.77140000 -2.09230000
H -1.43590000 -0.17560000 1.93430000
H -2.63500000 0.17880000 0.67490000
H -1.51960000 2.10210000 0.10810000
H -0.26410000 1.77140000 1.32440000
H 0.92930000 -2.14140000 -0.18520000
H 0.56440000 -1.52090000 1.47490000
20
Properties=species:S:1:pos:R:3 REF_energy=-0.06925491595873057
O -3.09670000 0.15440000 -1.00420000
O -2.49430000 0.20740000 1.18480000
N 1.94030000 -1.85210000 -0.12010000
C 0.22820000 -0.28060000 0.61140000
C -0.79620000 -0.16820000 -0.51930000
C 1.62530000 -0.53270000 0.08390000
C 2.49670000 0.45840000 -0.19320000
C -2.19130000 0.08190000 0.00660000
C 2.28810000 1.93160000 -0.04980000
H 0.20210000 0.62010000 1.23640000
H -0.05870000 -1.09400000 1.29210000
H -0.53370000 0.66170000 -1.18510000
H -0.81630000 -1.09700000 -1.10110000
H 3.48040000 0.18170000 -0.57150000
H 1.25490000 -2.57140000 0.07420000
H 2.85080000 -2.10530000 -0.48330000
H 1.26160000 2.20670000 0.20130000
H 2.95060000 2.32620000 0.72650000
H 2.53680000 2.42810000 -0.99340000
H -4.00470000 0.31690000 -0.67030000
22
Properties=species:S:1:pos:R:3 REF_energy=-0.07804325072586105
O 2.17100000 -1.44410000 0.06280000
O 2.69800000 0.75920000 0.16210000
N 0.21540000 1.54290000 -0.55070000
C -2.00980000 -0.38270000 0.45530000
C -0.49140000 -0.47310000 0.71280000
C 0.41010000 0.10210000 -0.39140000
C -2.42120000 -1.06960000 -0.84730000
C -2.44070000 1.08660000 0.42270000
C 1.86860000 -0.12130000 -0.02620000
H -2.52020000 -0.87710000 1.29130000
H -0.25780000 0.00950000 1.67230000
H -0.24590000 -1.53380000 0.85790000
H 0.23380000 -0.38800000 -1.35410000
H -2.02470000 -0.55900000 -1.73040000
H -2.07160000 -2.10710000 -0.86540000
H -3.51270000 -1.08410000 -0.94020000
H -1.98620000 1.66560000 1.23320000
H -2.24460000 1.57340000 -0.53650000
H -3.52690000 1.14300000 0.56590000
H 0.86020000 1.90550000 -1.25160000
H 0.43110000 2.02430000 0.32140000
H 3.11320000 -1.58830000 0.29460000
22
Properties=species:S:1:pos:R:3 REF_energy=-0.07550185189581549
N 3.35450000 -0.01870000 0.28220000
N 4.23470000 0.01160000 -0.84050000
C 0.96430000 0.00230000 0.93740000
C -0.44140000 0.00080000 0.43890000
C 1.98240000 0.00680000 -0.21310000
C -1.10080000 1.20820000 0.20820000
C -1.09670000 -1.20790000 0.20300000
C -2.41530000 1.20710000 -0.25820000
C -2.41130000 -1.20890000 -0.26360000
C -3.07050000 -0.00140000 -0.49420000
H 1.12610000 0.87450000 1.58480000
H 1.12880000 -0.87410000 1.57860000
H 1.81760000 0.89900000 -0.83290000
H 1.80340000 -0.86830000 -0.85230000
H -0.60070000 2.15650000 0.38620000
H -0.59350000 -2.15540000 0.37680000
H 3.52620000 0.79750000 0.86810000
H -2.92860000 2.14720000 -0.43840000
H -2.92140000 -2.14980000 -0.44800000
H -4.09380000 -0.00220000 -0.85780000
H 4.17920000 0.92440000 -1.29170000
H 5.19400000 -0.07650000 -0.50800000
26
Properties=species:S:1:pos:R:3 REF_energy=-0.10451994663908004
C 0.72400000 0.04710000 -0.33650000
C 0.02760000 1.20930000 0.38060000
C 0.03180000 -1.28140000 0.01180000
C -1.45150000 1.29660000 -0.00910000
C -2.14890000 -0.03960000 -0.04200000
C -1.46680000 -1.19710000 -0.01590000
C 2.18310000 -0.00510000 0.00280000
C -3.64700000 -0.00250000 -0.10800000
C 3.13530000 0.16820000 -1.14300000
C 2.61250000 -0.19550000 1.25920000
H 0.61270000 0.21090000 -1.41820000
H 0.51820000 2.16140000 0.14210000
H 0.09190000 1.08830000 1.47020000
H 0.31590000 -1.64860000 1.00530000
H 0.35260000 -2.04680000 -0.70640000
H -1.53870000 1.75730000 -1.00100000
H -1.95670000 1.96340000 0.70000000
H -2.00450000 -2.14170000 -0.02130000
H -3.97330000 0.53720000 -1.00290000
H -4.05380000 0.50550000 0.77240000
H -4.08410000 -1.00580000 -0.14590000
H 2.97970000 -0.61810000 -1.88890000
H 2.98030000 1.14020000 -1.62240000
H 4.18090000 0.11900000 -0.82110000
H 3.67270000 -0.23100000 1.48840000
H 1.92940000 -0.31790000 2.09240000
14
Properties=species:S:1:pos:R:3 REF_energy=-0.03005719876662183
O 0.85070000 2.07930000 0.00000000
O -3.22670000 -0.08260000 0.00050000
N -1.19450000 1.01080000 -0.00010000
N -1.29040000 -1.32530000 -0.00010000
C 0.85190000 -0.29790000 -0.00030000
C 0.19470000 1.04070000 -0.00020000
C 0.07660000 -1.38860000 -0.00020000
C -1.99630000 -0.13270000 0.00010000
C 2.26870000 -0.40610000 -0.00040000
C 3.46540000 -0.49760000 0.00080000
H 0.48220000 -2.39460000 -0.00020000
H -1.67380000 1.90680000 0.00010000
H -1.80480000 -2.20120000 0.00000000
H 4.52730000 -0.57880000 0.00190000
21
Properties=species:S:1:pos:R:3 REF_energy=-0.0628232166103384
O 2.65640000 1.53240000 -0.55590000
O 3.04410000 0.10640000 1.16210000
O -2.35580000 1.56580000 0.10610000
O -4.17040000 -0.42650000 -0.06840000
N 1.72080000 -1.93580000 0.06210000
N -2.81200000 -0.69750000 0.14400000
C 0.23540000 -0.21150000 -0.88680000
C 1.68430000 -0.67330000 -0.67460000
C -0.53680000 -0.00090000 0.41870000
C 2.52150000 0.34180000 0.07840000
C -1.98760000 0.39910000 0.21440000
H 0.22530000 0.72560000 -1.45810000
H -0.29490000 -0.94710000 -1.50570000
H 2.16240000 -0.83220000 -1.64830000
H -0.06780000 0.79160000 1.01440000
H -0.51250000 -0.90630000 1.03690000
H 2.67750000 -2.28650000 0.09380000
H 1.17730000 -2.63900000 -0.43700000
H -2.52380000 -1.66960000 0.13410000
H 3.20760000 2.16070000 -0.04240000
H -4.40710000 -1.16780000 -0.65110000
18
Properties=species:S:1:pos:R:3 REF_energy=-0.03936679237599483
O 1.31140000 -2.09410000 -0.13920000
O 1.91280000 1.93520000 -0.50150000
O 2.82860000 0.11580000 0.50700000
N -2.99410000 1.41850000 0.12680000
C 0.48660000 0.15300000 0.01970000
C -1.89930000 0.53190000 0.05870000
C -0.59650000 1.02970000 0.08520000
C 0.26670000 -1.22140000 -0.07220000
C -2.11920000 -0.84230000 -0.03320000
C -1.03620000 -1.71900000 -0.09860000
C 1.83910000 0.69260000 0.04730000
H -0.44440000 2.10350000 0.17030000
H -3.12970000 -1.24240000 -0.05440000
H -1.22230000 -2.78730000 -0.17020000
H -3.93890000 1.05850000 0.10500000
H -2.83560000 2.41530000 0.19060000
H 0.96470000 -3.00080000 -0.19880000
H 2.82680000 2.29090000 -0.47890000
32
Properties=species:S:1:pos:R:3 REF_energy=-0.12482638576473737
N -0.70890000 -0.01420000 -0.18080000
N 3.54530000 0.01100000 -0.30610000
C 0.67600000 -0.01210000 0.28980000
C 1.41280000 -1.25330000 -0.22400000
C 1.40660000 1.25870000 -0.15890000
C -1.41390000 -1.20990000 0.30180000
C -1.39690000 1.21430000 0.24040000
C -2.85010000 -1.25270000 -0.22190000
C -2.83260000 1.25090000 -0.28570000
C -3.61290000 0.01480000 0.14660000
C 2.89040000 -1.21070000 0.16810000
C 2.88440000 1.20320000 0.23080000
H 0.69280000 -0.03640000 1.38960000
H 1.32660000 -1.32760000 -1.31620000
H 1.01480000 -2.17920000 0.20220000
H 1.00480000 2.15690000 0.32120000
H 1.31950000 1.39160000 -1.24550000
H -1.41870000 -1.25050000 1.39890000
H -0.95570000 -2.13250000 -0.06390000
H -0.93030000 2.10950000 -0.18020000
H -1.39830000 1.31420000 1.33360000
H -3.36880000 -2.12700000 0.18790000
H -2.84110000 -1.36870000 -1.31330000
H -2.82240000 1.31060000 -1.38170000
H -3.33870000 2.15220000 0.07860000
H -4.60170000 0.00960000 -0.32490000
H -3.77250000 0.04350000 1.23140000
H 2.99690000 -1.29510000 1.25680000
H 3.40180000 -2.07490000 -0.26990000
H 3.39150000 2.09170000 -0.16150000
H 2.99070000 1.23130000 1.32240000
H 4.52120000 0.00580000 -0.01070000
29
Properties=species:S:1:pos:R:3 REF_energy=-0.10142968309545375
N 3.11070000 -0.25180000 -0.29440000
C 1.75360000 -0.32790000 0.27430000
C 0.74760000 0.03280000 -0.85040000
C 1.69710000 0.66160000 1.44620000
C 1.55970000 -1.75940000 0.79270000
C -0.71220000 0.06370000 -0.45950000
C 3.39050000 1.09610000 -0.75190000
C -1.46730000 -1.09240000 -0.56870000
C -1.26560000 1.24700000 0.00060000
C -2.81430000 -1.06420000 -0.20780000
C -2.61270000 1.27510000 0.36160000
C -3.38700000 0.11940000 0.25740000
H 0.94110000 1.02270000 -1.27750000
H 0.86720000 -0.66440000 -1.69270000
H 0.82800000 0.45160000 2.08210000
H 2.57720000 0.57550000 2.09570000
H 1.59740000 1.70620000 1.13420000
H 0.60490000 -1.87350000 1.31680000
H 2.34780000 -2.03400000 1.50450000
H 1.58380000 -2.48890000 -0.02520000
H 3.20000000 -0.90270000 -1.07430000
H 2.84220000 1.39450000 -1.64860000
H 4.44370000 1.11120000 -1.06060000
H 3.32480000 1.87460000 0.01140000
H -1.03190000 -2.01880000 -0.93180000
H -0.67470000 2.15440000 0.08300000
H -3.41730000 -1.96380000 -0.28940000
H -3.05900000 2.19690000 0.72320000
H -4.43590000 0.14140000 0.53830000
25
Properties=species:S:1:pos:R:3 REF_energy=-0.07947084653628766
O 1.35190000 2.24860000 0.06490000
N 2.44480000 -0.03180000 1.29610000
C 2.22900000 -0.00370000 -0.15420000
C 1.10990000 0.98050000 -0.54260000
C 1.87980000 -1.39930000 -0.67440000
C 0.57240000 -1.92220000 -0.07550000
C -0.28440000 0.47800000 -0.22620000
C -0.53540000 -0.89730000 -0.04760000
C -1.36330000 1.37730000 -0.18700000
C -1.84440000 -1.33350000 0.21350000
C -2.66020000 0.92900000 0.06440000
C -2.90020000 -0.42540000 0.26870000
H 3.16720000 0.33280000 -0.61240000
H 1.14630000 1.13730000 -1.62900000
H 2.68930000 -2.10860000 -0.46230000
H 1.78390000 -1.35660000 -1.76770000
H 0.74990000 -2.26120000 0.95290000
H 0.25080000 -2.79660000 -0.65450000
H -1.20290000 2.43930000 -0.35620000
H 2.70880000 0.89800000 1.61890000
H 3.22710000 -0.64770000 1.51330000
H -2.04690000 -2.39000000 0.37370000
H 2.23910000 2.53890000 -0.20750000
H -3.48240000 1.63790000 0.09760000
H -3.90870000 -0.77580000 0.46720000
29
Properties=species:S:1:pos:R:3 REF_energy=-0.10364031151249398
N 2.70120000 0.25400000 0.43590000
C 1.36350000 0.05150000 -0.12830000
C 0.30260000 0.34310000 0.94860000
C -1.11670000 0.20140000 0.45320000
C 1.27850000 -1.37820000 -0.66310000
C 3.72140000 0.04510000 -0.57790000
C -1.75930000 1.30260000 -0.09010000
C -1.75050000 -1.02710000 0.55020000
C 5.11270000 0.25200000 -0.01580000
C -3.07030000 1.17180000 -0.54800000
C -3.06160000 -1.15780000 0.09220000
C -3.72140000 -0.05840000 -0.45690000
H 1.20600000 0.74840000 -0.96260000
H 0.43950000 1.36060000 1.34060000
H 0.44830000 -0.32010000 1.81280000
H 2.77620000 1.19960000 0.81030000
H 0.27270000 -1.61590000 -1.01970000
H 1.54150000 -2.11680000 0.10260000
H 1.90730000 -1.54430000 -1.54290000
H 3.72530000 -0.97830000 -0.96140000
H 3.57490000 0.72760000 -1.42320000
H -1.25970000 2.26390000 -0.16740000
H -1.25000000 -1.88860000 0.98300000
H 5.24050000 1.27300000 0.35930000
H 5.31570000 -0.44190000 0.80710000
H 5.86640000 0.08350000 -0.79200000
H -3.58400000 2.02760000 -0.97610000
H -3.56920000 -2.11520000 0.16460000
H -4.74230000 -0.16020000 -0.81340000
22
Properties=species:S:1:pos:R:3 REF_energy=-0.06651860225435491
O 2.29590000 1.88610000 0.41670000
O -1.12010000 0.25300000 -1.77130000
O 3.17740000 -0.83680000 -0.26360000
O -2.08220000 -0.20840000 1.61780000
O -3.28080000 0.29200000 -0.25540000
C 0.02260000 1.12510000 0.16120000
C 1.49390000 0.86160000 -0.16940000
C -0.88000000 0.01620000 -0.39120000
C 1.95400000 -0.49180000 0.38830000
C -0.31640000 -1.36300000 -0.20060000
C 0.95160000 -1.58860000 0.17260000
C -2.21580000 0.05460000 0.29490000
H -0.07590000 1.23380000 1.24970000
H -0.26580000 2.09970000 -0.25500000
H 1.65080000 0.91220000 -1.25420000
H 2.17590000 -0.40800000 1.45880000
H -0.96750000 -2.21740000 -0.37060000
H 1.28010000 -2.61390000 0.31970000
H -1.59950000 -0.50970000 -2.13840000
H 3.22360000 1.68750000 0.20230000
H 3.49840000 -1.66700000 0.12840000
H -2.94470000 -0.18670000 2.08470000
18
Properties=species:S:1:pos:R:3 REF_energy=-0.039914021906467534
O -0.91360000 -1.43430000 -0.02040000
O -0.65490000 2.74330000 -0.01660000
O -3.19430000 -1.25820000 0.02800000
C 0.45520000 0.59390000 -0.00560000
C 0.34720000 -0.79950000 -0.01740000
C -0.78780000 1.37290000 -0.00960000
C 1.74520000 1.14010000 0.02130000
C 1.46360000 -1.63810000 -0.01660000
C -1.97230000 0.75430000 0.00410000
C 2.87470000 0.31180000 0.02320000
C 2.73430000 -1.07440000 0.00200000
C -2.09720000 -0.71180000 0.00770000
H 1.89240000 2.21750000 0.03790000
H 1.34770000 -2.71770000 -0.02710000
H -2.89780000 1.32120000 0.00850000
H 3.86680000 0.75460000 0.04120000
H 3.61390000 -1.71090000 0.00370000
H -1.54600000 3.13360000 -0.01490000
19
Properties=species:S:1:pos:R:3 REF_energy=-0.043178299079345006
O 0.63610000 2.64670000 0.00000000
N 1.91890000 0.72690000 0.00000000
N 0.96910000 -1.42560000 -0.00040000
N 3.29800000 -1.15970000 0.00070000
C -0.47850000 0.56550000 -0.00030000
C -0.30260000 -0.82450000 -0.00050000
C 0.72180000 1.42440000 -0.00020000
C -1.75670000 1.13180000 0.00010000
C -1.43710000 -1.64320000 -0.00030000
C 2.02310000 -0.65890000 0.00010000
C -2.87550000 0.30080000 0.00050000
C -2.71670000 -1.08420000 0.00040000
H -1.89800000 2.20880000 0.00030000
H -1.33120000 -2.72550000 -0.00050000
H 2.77900000 1.26740000 0.00030000
H -3.87230000 0.73240000 0.00100000
H -3.58990000 -1.73020000 0.00060000
H 3.46950000 -2.15930000 0.00080000
H 4.10690000 -0.54800000 0.00110000
27
Properties=species:S:1:pos:R:3 REF_energy=-0.09327559564778709
O -3.36480000 -0.54880000 0.25240000
O -2.17100000 1.08670000 1.29930000
N -0.25850000 1.08450000 -0.57620000
C 0.74490000 -1.04350000 -0.64100000
C 0.92580000 0.39770000 -1.12100000
C -0.75650000 -1.26340000 -0.83190000
C 1.15720000 -1.26370000 0.82330000
C 2.25140000 1.02900000 -0.69450000
C -1.36740000 0.13590000 -0.76750000
C 2.54220000 -0.69880000 1.11380000
C 2.61200000 0.78440000 0.76800000
C -2.31520000 0.30010000 0.37530000
H 1.31790000 -1.73220000 -1.27380000
H 0.86340000 0.43070000 -2.21770000
H -1.16560000 -1.96910000 -0.10110000
H -0.93040000 -1.68300000 -1.83080000
H 1.14250000 -2.33670000 1.04940000
H 0.43430000 -0.79540000 1.50350000
H 2.24000000 2.10720000 -0.89520000
H 3.04930000 0.60830000 -1.32070000
H -1.89740000 0.37300000 -1.69780000
H -0.43380000 1.95620000 -1.07320000
H 3.29490000 -1.25000000 0.53720000
H 2.78220000 -0.84080000 2.17360000
H 1.92990000 1.34700000 1.41690000
H 3.62190000 1.16170000 0.96480000
H -3.99850000 -0.45790000 0.99560000
22
Properties=species:S:1:pos:R:3 REF_energy=-0.060163780307878945
O -1.81300000 -0.25930000 1.89800000
O -1.78720000 0.84380000 -1.58630000
O -0.69800000 -1.84290000 -1.18400000
N 0.82290000 0.80100000 0.07100000
N 1.97100000 -1.09240000 0.07670000
C -1.72500000 -0.40220000 0.48130000
C -1.64030000 0.98470000 -0.17490000
C -0.53400000 -1.30730000 0.12480000
C -0.31800000 1.69440000 0.13520000
C 0.76040000 -0.56960000 0.09910000
C 2.13470000 1.16900000 0.02780000
C 2.82630000 -0.01930000 0.03130000
H -2.64790000 -0.89260000 0.14890000
H -2.46470000 1.61700000 0.17300000
H -0.47110000 -2.14140000 0.83310000
H -0.13410000 2.50680000 -0.57650000
H -0.32740000 2.10180000 1.15240000
H 2.45380000 2.20160000 0.00500000
H -0.96760000 0.09190000 2.22420000
H -1.03020000 0.33820000 -1.92660000
H 3.89740000 -0.15720000 0.00580000
H 0.00440000 -2.50050000 -1.32710000
25
Properties=species:S:1:pos:R:3 REF_energy=-0.08393362873424692
O 0.69060000 1.14680000 -0.25330000
O -1.90160000 -2.03930000 -0.44850000
O 0.83230000 -2.47700000 0.33360000
O -1.06190000 2.67980000 -0.23720000
O 3.39010000 0.94060000 0.18680000
N -2.91160000 0.56830000 0.41760000
C -1.09080000 -1.05800000 0.20040000
C 0.36500000 -1.25570000 -0.23280000
C -1.59600000 0.33640000 -0.18610000
C 1.23160000 -0.08260000 0.23540000
C -0.61160000 1.42240000 0.26430000
C 2.66390000 -0.18170000 -0.28030000
H -1.18240000 -1.23060000 1.28030000
H 0.40560000 -1.35590000 -1.32500000
H -1.72490000 0.39260000 -1.27480000
H 1.26830000 -0.03770000 1.33230000
H -0.56140000 1.48940000 1.35900000
H 2.69810000 -0.17140000 -1.37480000
H 3.16580000 -1.08340000 0.08040000
H -2.83600000 0.53390000 1.43380000
H -3.54310000 -0.18830000 0.15690000
H -1.82790000 -1.90490000 -1.40870000
H 1.68040000 -2.69440000 -0.08800000
H -0.68820000 3.36700000 0.34030000
H 2.93870000 1.73880000 -0.13720000
26
Properties=species:S:1:pos:R:3 REF_energy=-0.08214504018318225
O -0.75250000 1.78420000 -0.34400000
N -0.00580000 -1.76680000 -0.38000000
N -2.05010000 0.00260000 0.36630000
C 2.47720000 0.37690000 -0.09710000
C 1.38300000 0.06310000 -1.13610000
C 2.00150000 1.38690000 0.95020000
C 2.91930000 -0.91440000 0.59600000
C 0.09450000 -0.43990000 -0.53230000
C -0.89330000 0.43550000 -0.17330000
C -1.16250000 -2.19960000 0.15940000
C -2.16670000 -1.33060000 0.52600000
C -1.84440000 2.60210000 0.06490000
H 3.33990000 0.79790000 -0.62790000
H 1.75660000 -0.68950000 -1.84330000
H 1.18730000 0.95510000 -1.74480000
H 1.20930000 0.99310000 1.59380000
H 1.65720000 2.31140000 0.47680000
H 2.83570000 1.65770000 1.60810000
H 3.79240000 -0.72090000 1.22920000
H 2.13950000 -1.33090000 1.24140000
H 3.20770000 -1.67660000 -0.13550000
H -1.25690000 -3.27070000 0.28850000
H -3.09590000 -1.67920000 0.95960000
H -2.02780000 2.50190000 1.13990000
H -2.74690000 2.36740000 -0.50930000
H -1.57740000 3.64380000 -0.13620000
25
Properties=species:S:1:pos:R:3 REF_energy=-0.07450979948237979
O 0.74830000 0.01070000 0.52650000
O 3.92880000 -0.02690000 -1.12990000
O 3.41370000 0.02140000 1.08820000
C -0.58520000 0.00280000 0.24040000
C -1.27240000 1.20720000 0.08950000
C -1.26170000 -1.20870000 0.09820000
C -2.63620000 1.20020000 -0.20340000
C -2.62550000 -1.21580000 -0.19480000
C -3.31270000 -0.01130000 -0.34560000
C -0.56620000 2.51440000 0.23880000
C -0.54410000 -2.50890000 0.25500000
C 1.64710000 0.01120000 -0.57990000
C 3.06610000 0.00370000 -0.08310000
H -3.18470000 2.13040000 -0.32580000
H -3.16570000 -2.15160000 -0.31090000
H -4.37430000 -0.01680000 -0.57490000
H 0.14330000 2.48930000 1.07260000
H -0.02990000 2.76330000 -0.68200000
H -1.27060000 3.32620000 0.45140000
H -0.00730000 -2.75930000 -0.66510000
H 0.16680000 -2.47190000 1.08710000
H -1.24120000 -3.32520000 0.47440000
H 1.48890000 -0.88480000 -1.18930000
H 1.49670000 0.91230000 -1.18320000
H 4.86400000 -0.03290000 -0.83340000
29
Properties=species:S:1:pos:R:3 REF_energy=-0.09702190155043233
O 3.72290000 0.92150000 1.10190000
O 3.20920000 -1.27840000 1.34500000
N 2.44080000 -1.49230000 -1.26400000
N -2.52060000 -0.05230000 -0.32580000
N -4.21390000 -1.63200000 -0.22890000
N -4.46370000 0.23320000 1.05720000
C 0.39720000 0.51640000 -0.26540000
C 1.70220000 0.85880000 -0.99850000
C -0.69080000 1.55360000 -0.56560000
C 2.83190000 -0.16230000 -0.79950000
C -2.00690000 1.23790000 0.13640000
C 3.25480000 -0.27220000 0.65180000
C -3.66310000 -0.43200000 0.15540000
H 0.05240000 -0.47700000 -0.57230000
H 0.57410000 0.47940000 0.81580000
H 2.04250000 1.84920000 -0.67040000
H 1.49410000 0.94750000 -2.07310000
H -0.34770000 2.54620000 -0.25020000
H -0.85980000 1.59900000 -1.64860000
H 3.71100000 0.15130000 -1.37510000
H -1.84310000 1.21950000 1.22080000
H -2.72060000 2.03790000 -0.09490000
H 3.24450000 -2.11840000 -1.22720000
H 2.16260000 -1.44410000 -2.24340000
H 4.00820000 0.87210000 2.03910000
H -3.74030000 -2.23760000 -0.89040000
H -5.10600000 -1.94720000 0.13620000
H -5.34510000 -0.16330000 1.36510000
H -4.20770000 1.13340000 1.44670000
22
Properties=species:S:1:pos:R:3 REF_energy=-0.052766530652123445
O -3.70300000 -1.20790000 -0.28560000
O -3.87520000 1.05800000 -0.33980000
N 2.37270000 0.00470000 0.79970000
N 4.56130000 -0.02180000 -0.01620000
N 2.87810000 -0.01930000 -1.55730000
C 0.99680000 0.01490000 0.55070000
C -1.74870000 0.03560000 0.05570000
C 0.32140000 1.22800000 0.41650000
C 0.29940000 -1.18770000 0.43770000
C -1.05130000 1.23830000 0.16900000
C -1.07330000 -1.17740000 0.19010000
C -3.17960000 0.04610000 -0.20310000
C 3.20120000 -0.01130000 -0.21750000
H 0.85600000 2.17030000 0.50370000
H 0.81720000 -2.13780000 0.54160000
H -1.55890000 2.19390000 0.06750000
H -1.57670000 -2.13670000 0.10940000
H 4.95220000 -0.01710000 0.91970000
H 5.21230000 -0.03310000 -0.79360000
H 3.60050000 -0.03080000 -2.26920000
H 1.91720000 -0.01300000 -1.88060000
H -4.66800000 -1.18970000 -0.46090000
28
Properties=species:S:1:pos:R:3 REF_energy=-0.09554739535976231
O 3.02090000 -1.33660000 0.50870000
O 5.47270000 0.07180000 0.65530000
N 3.10410000 0.09960000 0.29900000
C 0.67750000 0.15440000 -0.04270000
C -0.44180000 0.47280000 -1.03740000
C 2.05180000 0.38790000 -0.66830000
C -1.80370000 0.21160000 -0.44660000
C -2.37930000 -1.04240000 -0.58870000
C -2.46010000 1.22930000 0.22970000
C 4.42800000 0.31800000 -0.28350000
C -3.63950000 -1.28420000 -0.04210000
C -3.72050000 0.98730000 0.77620000
C -4.31020000 -0.26940000 0.64040000
H 0.56580000 0.78040000 0.85250000
H 0.57550000 -0.88700000 0.28790000
H -0.37480000 1.52030000 -1.35850000
H -0.31850000 -0.12630000 -1.94900000
H 2.16040000 -0.22620000 -1.57210000
H 2.12040000 1.43810000 -0.97850000
H -1.86430000 -1.83990000 -1.11670000
H -2.00850000 2.21070000 0.34250000
H 4.59840000 -0.32140000 -1.15820000
H 4.52530000 1.36310000 -0.59770000
H -4.09850000 -2.26290000 -0.14740000
H -4.24260000 1.77740000 1.30810000
H -5.29140000 -0.45780000 1.06620000
H 2.88000000 -1.35060000 1.47070000
H 6.31300000 0.25230000 0.20010000
25
Properties=species:S:1:pos:R:3 REF_energy=-0.07175184590854333
O -3.04950000 1.22490000 -0.79520000
O 4.21730000 0.65270000 0.42220000
N -3.23390000 -1.51250000 0.22910000
N -2.26470000 1.52320000 1.34270000
C -1.03720000 -1.01660000 -0.77550000
C -2.04060000 -0.67090000 0.33460000
C 0.36950000 -0.56960000 -0.45450000
C 0.78380000 0.69500000 -0.83920000
C 1.21850000 -1.43340000 0.21780000
C -2.51410000 0.77200000 0.21460000
C 2.08310000 1.10730000 -0.54340000
C 2.51780000 -1.02120000 0.51380000
C 2.95010000 0.24920000 0.13310000
H -1.01610000 -2.10420000 -0.93420000
H -1.34560000 -0.59270000 -1.74080000
H -1.59370000 -0.84990000 1.31920000
H 0.11710000 1.37020000 -1.36770000
H 0.89050000 -2.42360000 0.52070000
H -3.68400000 -1.37080000 -0.67440000
H -3.91260000 -1.24530000 0.94080000
H 2.40760000 2.09940000 -0.84560000
H 3.18830000 -1.69380000 1.04170000
H -1.81420000 1.14100000 2.16780000
H -2.52840000 2.50210000 1.38340000
H 4.34470000 1.55660000 0.08630000
28
Properties=species:S:1:pos:R:3 REF_energy=-0.0906964402701429
N -3.34760000 -0.31180000 -0.95010000
C -1.28590000 0.34760000 -0.03470000
C -2.11690000 -0.22270000 1.05020000
C -1.87670000 1.26410000 1.00510000
C -1.97660000 0.06150000 -1.32910000
C -3.31320000 -0.85590000 0.41580000
C 0.19000000 0.17280000 -0.02930000
C 1.02780000 1.27520000 -0.21310000
C 0.74550000 -1.09510000 0.15960000
C 2.41300000 1.11090000 -0.20820000
C 2.13060000 -1.25930000 0.16460000
C 2.96440000 -0.15630000 -0.01930000
C 4.44560000 -0.33090000 -0.01140000
H -1.68790000 -0.79000000 1.86250000
H -2.69480000 1.91530000 0.72090000
H -1.23760000 1.68300000 1.77430000
H -1.98780000 0.93520000 -1.98800000
H -1.50740000 -0.77510000 -1.86000000
H -3.18750000 -1.94360000 0.38430000
H -4.23480000 -0.61720000 0.95350000
H -3.73900000 -0.98690000 -1.60430000
H 0.61150000 2.26790000 -0.36460000
H 0.11000000 -1.96580000 0.29920000
H 3.05210000 1.97820000 -0.35100000
H 2.54820000 -2.25150000 0.31380000
H 4.93310000 0.40230000 -0.66290000
H 4.83270000 -0.20960000 1.00500000
H 4.72870000 -1.32340000 -0.37850000
28
Properties=species:S:1:pos:R:3 REF_energy=-0.09206434854143208
O 1.60850000 1.76610000 -0.53920000
N 3.13090000 -0.29400000 0.86400000
C 2.25680000 -0.54340000 -0.28400000
C 1.21450000 0.59370000 -0.36130000
C -0.20500000 0.31380000 -0.21400000
C 3.08880000 -0.58690000 -1.55920000
C -0.71880000 -0.91930000 -0.61550000
C -1.05300000 1.27920000 0.32870000
C -2.92830000 -0.22130000 0.06780000
C -2.08030000 -1.18690000 -0.47480000
C -2.41470000 1.01180000 0.46950000
C 2.48500000 -0.70510000 2.09990000
C -4.38430000 -0.50790000 0.21810000
H 1.78560000 -1.52340000 -0.17200000
H 2.44410000 -0.73470000 -2.43270000
H 3.81290000 -1.40860000 -1.53290000
H 3.64090000 0.34670000 -1.71750000
H 3.99310000 -0.82890000 0.75880000
H -0.09890000 -1.68300000 -1.07460000
H -0.67090000 2.24390000 0.65240000
H -2.47010000 -2.14890000 -0.79680000
H -3.06480000 1.77100000 0.89620000
H 2.24230000 -1.77300000 2.09740000
H 3.16540000 -0.52420000 2.93840000
H 1.57480000 -0.13060000 2.29770000
H -4.57790000 -0.96800000 1.19210000
H -4.97810000 0.40910000 0.13900000
H -4.73640000 -1.18580000 -0.56700000
24
Properties=species:S:1:pos:R:3 REF_energy=-0.06650522248913227
O -1.59800000 -1.47450000 -1.19260000
O 2.85260000 -2.05610000 0.37830000
O -3.23040000 -1.34020000 0.37680000
N -3.23680000 1.38780000 0.07890000
C -0.95210000 0.97130000 0.86750000
C -1.99720000 0.67400000 -0.21910000
C 0.46250000 0.69340000 0.41350000
C 1.00220000 -0.56660000 0.61140000
C 1.19040000 1.70420000 -0.19190000
C -2.35060000 -0.80210000 -0.28330000
C 2.30750000 -0.82320000 0.19180000
C 2.49560000 1.44780000 -0.61150000
C 3.05420000 0.18400000 -0.41970000
H -1.16330000 0.39540000 1.77910000
H -1.00570000 2.02630000 1.17110000
H -1.65950000 0.99900000 -1.21000000
H 0.42510000 -1.35340000 1.08960000
H 0.76310000 2.69050000 -0.34820000
H -3.05900000 2.39180000 0.08680000
H -3.55290000 1.15490000 1.02020000
H 3.07670000 2.23170000 -1.08830000
H 4.07190000 -0.00300000 -0.75160000
H -1.84060000 -2.42390000 -1.23740000
H 3.76030000 -2.05550000 0.02870000
20
Properties=species:S:1:pos:R:3 REF_energy=-0.032465887351181166
O -4.60770000 0.04240000 0.05880000
O -2.86240000 -0.06780000 1.50670000
O 3.76640000 1.09700000 0.36010000
O 3.76960000 -1.09800000 0.32740000
N 3.17160000 0.00040000 0.22470000
C -0.95710000 0.00680000 -0.59690000
C -2.41990000 0.00890000 -0.88680000
C -0.27480000 1.21360000 -0.44300000
C -0.27140000 -1.20220000 -0.47890000
C 1.77910000 0.00250000 -0.05320000
C 1.09330000 1.21140000 -0.17120000
C 1.09670000 -1.20440000 -0.20700000
C -3.28320000 -0.01050000 0.35940000
H -2.68120000 -0.86480000 -1.49630000
H -2.68100000 0.90050000 -1.46980000
H -0.79840000 2.16210000 -0.53050000
H -0.79250000 -2.14900000 -0.59450000
H 1.59190000 2.17060000 -0.05690000
H 1.59800000 -2.16510000 -0.12110000
H -5.16600000 0.02920000 0.86540000
25
Properties=species:S:1:pos:R:3 REF_energy=-0.07587876053688491
O 1.59380000 1.81400000 -1.00180000
O -1.16200000 1.67560000 -0.90010000
O 3.11600000 0.45870000 0.99570000
O -1.40720000 0.51900000 1.70400000
O 3.07440000 -2.15160000 -0.11920000
O -2.48280000 -1.47840000 -1.09090000
O -3.64990000 -0.30400000 0.46080000
C 0.97270000 1.05460000 0.03050000
C -0.38800000 0.54320000 -0.49350000
C 1.89960000 -0.09240000 0.49160000
C -1.21970000 -0.25580000 0.52780000
C 2.23150000 -1.11380000 -0.59980000
C -2.57840000 -0.66920000 -0.00510000
H 0.81360000 1.75670000 0.85790000
H -0.24500000 -0.04760000 -1.40500000
H 1.44820000 -0.61450000 1.34140000
H -0.69540000 -1.17190000 0.81990000
H 2.76380000 -0.63400000 -1.42750000
H 1.33090000 -1.58570000 -1.00140000
H 2.39440000 2.21970000 -0.62860000
H -0.63540000 2.16990000 -1.55150000
H 3.61910000 0.81510000 0.24410000
H -1.81780000 -0.05650000 2.37190000
H 2.61560000 -2.57850000 0.62430000
H -3.36490000 -1.73050000 -1.43810000
28
Properties=species:S:1:pos:R:3 REF_energy=-0.08966922775329644
O -2.28540000 -2.08660000 0.27850000
N -0.60760000 -0.51400000 -0.16330000