12
Properties=species:S:1:pos:R:3 REF_energy=-0.04079159119813813
O -2.40869999 0.09560000 -0.00310000
O 2.40869999 0.09550000 0.00270000
O 0.00000000 1.27709997 0.00030000
C 0.00000000 0.04700000 -0.00020000
C -1.28369999 -0.75760001 0.00570000
C 1.28369999 -0.75749999 -0.00530000
H -1.31780005 -1.36640000 0.91310000
H -1.31819999 -1.40509999 -0.87489998
H 1.31780005 -1.36710000 -0.91210002
H 1.31819999 -1.40400004 0.87589997
H -2.40820003 0.57150000 -0.85119998
H 2.40820003 0.57230002 0.85030001
14
Properties=species:S:1:pos:R:3 REF_energy=-0.05143145751204703
O -1.50520003 1.00960004 -0.19730000
O 1.07480001 1.23740005 0.40540001
C -0.72329998 -0.15620001 -0.40130001
C 0.72420001 0.14280000 -0.03630000
C -1.29600000 -1.26670003 0.46090001
C 1.72549999 -0.96689999 -0.23140000
H -0.77649999 -0.42289999 -1.46179998
H -1.20490003 -1.02230000 1.52540004
H -0.78659999 -2.21900010 0.28580001
H -2.36339998 -1.40190005 0.25560001
H 1.60710001 -1.71650004 0.55400002
H 2.73850012 -0.55729997 -0.18430001
H 1.58490002 -1.42289996 -1.21469998
H -1.19449997 1.68340003 -0.82599998
21
Properties=species:S:1:pos:R:3 REF_energy=-0.06352492850697189
O 2.65639997 1.53240001 -0.55589998
O 3.04410005 0.10640000 1.16209996
O -2.35579991 1.56579995 0.10610000
O -4.17040014 -0.42649999 -0.06840000
N 1.72080004 -1.93579996 0.06210000
N -2.81200004 -0.69749999 0.14399999
C 0.23540001 -0.21150000 -0.88679999
C 1.68429995 -0.67330003 -0.67460001
C -0.53680003 -0.00090000 0.41870001
C 2.52150011 0.34180000 0.07840000
C -1.98759997 0.39910001 0.21439999
H 0.22530000 0.72560000 -1.45809996
H -0.29490000 -0.94709998 -1.50569999
H 2.16240001 -0.83219999 -1.64830005
H -0.06780000 0.79159999 1.01440001
H -0.51249999 -0.90630001 1.03690004
H 2.67750001 -2.28649998 0.09380000
H 1.17729998 -2.63899994 -0.43700001
H -2.52379990 -1.66960001 0.13410001
H 3.20760012 2.16070008 -0.04240000
H -4.40710020 -1.16779995 -0.65109998
18
Properties=species:S:1:pos:R:3 REF_energy=-0.03983042332176723
O 1.31140006 -2.09410000 -0.13920000
O 1.91279995 1.93519998 -0.50150001
O 2.82859993 0.11580000 0.50700003
N -2.99410009 1.41849995 0.12680000
C 0.48660001 0.15300000 0.01970000
C -1.89929998 0.53189999 0.05870000
C -0.59649998 1.02970004 0.08520000
C 0.26670000 -1.22140002 -0.07220000
C -2.11919999 -0.84230000 -0.03320000
C -1.03620005 -1.71899998 -0.09860000
C 1.83910000 0.69260001 0.04730000
H -0.44440001 2.10349989 0.17030001
H -3.12969995 -1.24240005 -0.05440000
H -1.22230005 -2.78730011 -0.17020001
H -3.93889999 1.05850005 0.10500000
H -2.83559990 2.41529989 0.19059999
H 0.96469998 -3.00079989 -0.19880000
H 2.82680011 2.29089999 -0.47889999
32
Properties=species:S:1:pos:R:3 REF_energy=-0.12581823711136142
N -0.70889997 -0.01420000 -0.18080001
N 3.54530001 0.01100000 -0.30610001
C 0.67600000 -0.01210000 0.28979999
C 1.41279995 -1.25329995 -0.22400001
C 1.40660000 1.25870001 -0.15889999
C -1.41390002 -1.20990002 0.30180001
C -1.39690006 1.21430004 0.24040000
C -2.85010004 -1.25269997 -0.22190000
C -2.83260012 1.25090003 -0.28569999
C -3.61290002 0.01480000 0.14659999
C 2.89039993 -1.21070004 0.16810000
C 2.88439989 1.20319998 0.23080000
H 0.69279999 -0.03640000 1.38960004
H 1.32659996 -1.32760000 -1.31620002
H 1.01479995 -2.17919993 0.20220000
H 1.00479996 2.15689993 0.32120001
H 1.31949997 1.39160001 -1.24549997
H -1.41869998 -1.25049996 1.39890003
H -0.95569998 -2.13249993 -0.06390000
H -0.93030000 2.10949993 -0.18020000
H -1.39830005 1.31420004 1.33360004
H -3.36879992 -2.12700009 0.18790001
H -2.84109998 -1.36870003 -1.31330001
H -2.82240009 1.31060004 -1.38170004
H -3.33870006 2.15219998 0.07860000
H -4.60169983 0.00960000 -0.32490000
H -3.77250004 0.04350000 1.23140001
H 2.99690008 -1.29509997 1.25680006
H 3.40179992 -2.07489991 -0.26989999
H 3.39150000 2.09170008 -0.16150001
H 2.99070001 1.23130000 1.32239997
H 4.52120018 0.00580000 -0.01070000
29
Properties=species:S:1:pos:R:3 REF_energy=-0.10199758272411108
N 3.11069989 -0.25180000 -0.29440001
C 1.75360000 -0.32789999 0.27430001
C 0.74760002 0.03280000 -0.85039997
C 1.69710004 0.66159999 1.44620001
C 1.55970001 -1.75940001 0.79269999
C -0.71219999 0.06370000 -0.45950001
C 3.39050007 1.09609997 -0.75190002
C -1.46730006 -1.09239995 -0.56870002
C -1.26559997 1.24699998 0.00060000
C -2.81430006 -1.06420004 -0.20780000
C -2.61269999 1.27509999 0.36160001
C -3.38700008 0.11940000 0.25740001
H 0.94110000 1.02269995 -1.27750003
H 0.86720002 -0.66439998 -1.69270003
H 0.82800001 0.45159999 2.08209991
H 2.57719994 0.57550001 2.09570003
H 1.59739995 1.70620000 1.13419998
H 0.60490000 -1.87349999 1.31680000
H 2.34780002 -2.03399992 1.50450003
H 1.58379996 -2.48889995 -0.02520000
H 3.20000005 -0.90270001 -1.07430005
H 2.84220004 1.39450002 -1.64859998
H 4.44369984 1.11119998 -1.06060004
H 3.32480001 1.87460005 0.01140000
H -1.03190005 -2.01880002 -0.93180001
H -0.67470002 2.15440011 0.08300000
H -3.41729999 -1.96379995 -0.28940001
H -3.05900002 2.19689989 0.72320002
H -4.43590021 0.14139999 0.53829998
25
Properties=species:S:1:pos:R:3 REF_energy=-0.07992691369174287
O 1.35189998 2.24860001 0.06490000
N 2.44479990 -0.03180000 1.29610002
C 2.22900009 -0.00370000 -0.15420000
C 1.10990000 0.98049998 -0.54259998
C 1.87979996 -1.39929998 -0.67439997
C 0.57239997 -1.92219996 -0.07550000
C -0.28439999 0.47799999 -0.22620000
C -0.53539997 -0.89730000 -0.04760000
C -1.36329997 1.37730002 -0.18700001
C -1.84440005 -1.33350003 0.21349999
C -2.66020012 0.92900002 0.06440000
C -2.90019989 -0.42539999 0.26870000
H 3.16720009 0.33280000 -0.61240000
H 1.14629996 1.13730001 -1.62899995
H 2.68930006 -2.10859990 -0.46230000
H 1.78390002 -1.35660005 -1.76769996
H 0.74989998 -2.26119995 0.95289999
H 0.25080001 -2.79660010 -0.65450001
H -1.20290005 2.43930006 -0.35620001
H 2.70880008 0.89800000 1.61889994
H 3.22709990 -0.64770001 1.51329994
H -2.04690003 -2.39000010 0.37369999
H 2.23909998 2.53889990 -0.20750000
H -3.48239994 1.63789999 0.09760000
H -3.90869999 -0.77579999 0.46720001
29
Properties=species:S:1:pos:R:3 REF_energy=-0.10420493971516454
N 2.70120001 0.25400001 0.43590000
C 1.36350000 0.05150000 -0.12830000
C 0.30260000 0.34310001 0.94859999
C -1.11670005 0.20140000 0.45320001
C 1.27849996 -1.37820005 -0.66310000
C 3.72140002 0.04510000 -0.57789999
C -1.75929999 1.30260003 -0.09010000
C -1.75049996 -1.02709997 0.55019999
C 5.11269999 0.25200000 -0.01580000
C -3.07030010 1.17180002 -0.54799998
C -3.06159997 -1.15779996 0.09220000
C -3.72140002 -0.05840000 -0.45690000
H 1.20599997 0.74839997 -0.96259999
H 0.43950000 1.36059999 1.34060001
H 0.44830000 -0.32010001 1.81280005
H 2.77620006 1.19959998 0.81029999
H 0.27270001 -1.61590004 -1.01970005
H 1.54149997 -2.11680007 0.10260000
H 1.90730000 -1.54429996 -1.54289997
H 3.72530007 -0.97829998 -0.96139997
H 3.57489991 0.72759998 -1.42320001
H -1.25969994 2.26390004 -0.16740000
H -1.25000000 -1.88859999 0.98299998
H 5.24049997 1.27300000 0.35929999
H 5.31570005 -0.44190001 0.80710000
H 5.86639977 0.08350000 -0.79200000
H -3.58400011 2.02760005 -0.97610003
H -3.56920004 -2.11520004 0.16460000
H -4.74230003 -0.16020000 -0.81339997
22
Properties=species:S:1:pos:R:3 REF_energy=-0.06722693323951234
O 2.29590011 1.88610005 0.41670001
O -1.12010002 0.25299999 -1.77129996
O 3.17740011 -0.83679998 -0.26359999
O -2.08220005 -0.20840000 1.61780000
O -3.28080010 0.29200000 -0.25540000
C 0.02260000 1.12510002 0.16120000
C 1.49389994 0.86159998 -0.16940001
C -0.88000000 0.01620000 -0.39120001
C 1.95400000 -0.49180001 0.38830000
C -0.31639999 -1.36300004 -0.20060000
C 0.95160002 -1.58860004 0.17260000
C -2.21580005 0.05460000 0.29490000
H -0.07590000 1.23380005 1.24969995
H -0.26580000 2.09969997 -0.25500000
H 1.65079999 0.91219997 -1.25419998
H 2.17589998 -0.40799999 1.45879996
H -0.96749997 -2.21740007 -0.37059999
H 1.28009999 -2.61389995 0.31970000
H -1.59949994 -0.50970000 -2.13840008
H 3.22359991 1.68750000 0.20230000
H 3.49839997 -1.66700006 0.12840000
H -2.94470000 -0.18670000 2.08470011
18
Properties=species:S:1:pos:R:3 REF_energy=-0.0405964924997444
O -0.91360003 -1.43429995 -0.02040000
O -0.65490001 2.74329996 -0.01660000
O -3.19429994 -1.25820005 0.02800000
C 0.45519999 0.59390002 -0.00560000
C 0.34720001 -0.79949999 -0.01740000
C -0.78780001 1.37290001 -0.00960000
C 1.74520004 1.14010000 0.02130000
C 1.46360004 -1.63810003 -0.01660000
C -1.97230005 0.75430000 0.00410000
C 2.87470007 0.31180000 0.02320000
C 2.73429990 -1.07439995 0.00200000
C -2.09719992 -0.71179998 0.00770000
H 1.89240003 2.21749997 0.03790000
H 1.34770000 -2.71770000 -0.02710000
H -2.89779997 1.32120001 0.00850000
H 3.86680007 0.75459999 0.04120000
H 3.61389995 -1.71089995 0.00370000
H -1.54600000 3.13360000 -0.01490000
19
Properties=species:S:1:pos:R:3 REF_energy=-0.04352276153909451
O 0.63609999 2.64669991 0.00000000
N 1.91890001 0.72689998 0.00000000
N 0.96910000 -1.42560005 -0.00040000
N 3.29800010 -1.15970004 0.00070000
C -0.47850001 0.56550002 -0.00030000
C -0.30260000 -0.82450002 -0.00050000
C 0.72180003 1.42439997 -0.00020000
C -1.75670004 1.13180006 0.00010000
C -1.43710005 -1.64320004 -0.00030000
C 2.02309990 -0.65890002 0.00010000
C -2.87549996 0.30080000 0.00050000
C -2.71670008 -1.08420002 0.00040000
H -1.89800000 2.20880008 0.00030000
H -1.33120000 -2.72550011 -0.00050000
H 2.77900004 1.26740003 0.00030000
H -3.87229991 0.73240000 0.00100000
H -3.58990002 -1.73020005 0.00060000
H 3.46950006 -2.15930009 0.00080000
H 4.10690022 -0.54799998 0.00110000
27
Properties=species:S:1:pos:R:3 REF_energy=-0.09391078323732072
O -3.36479998 -0.54879999 0.25240001
O -2.17100000 1.08669996 1.29929996
N -0.25850001 1.08449996 -0.57620001
C 0.74489999 -1.04349995 -0.64099997
C 0.92580003 0.39770001 -1.12100005
C -0.75650001 -1.26339996 -0.83190000
C 1.15719998 -1.26370001 0.82330000
C 2.25139999 1.02900004 -0.69450003
C -1.36740005 0.13590001 -0.76749998
C 2.54220009 -0.69880003 1.11380005
C 2.61199999 0.78439999 0.76800001
C -2.31520009 0.30010000 0.37529999
H 1.31789994 -1.73220003 -1.27380002
H 0.86339998 0.43070000 -2.21770000
H -1.16559994 -1.96910000 -0.10110000
H -0.93040001 -1.68299997 -1.83080006
H 1.14250004 -2.33669996 1.04939997
H 0.43430001 -0.79540002 1.50349998
H 2.24000001 2.10719991 -0.89520001
H 3.04929996 0.60829997 -1.32070005
H -1.89740002 0.37300000 -1.69780004
H -0.43380001 1.95620000 -1.07319999
H 3.29489994 -1.25000000 0.53719997
H 2.78220010 -0.84079999 2.17359996
H 1.92990005 1.34700000 1.41690004
H 3.62190008 1.16170001 0.96480000
H -3.99850011 -0.45789999 0.99559999
25
Properties=species:S:1:pos:R:3 REF_energy=-0.10237303848414547
N -1.95620000 -0.10730000 1.33369994
C 0.90480000 -0.50580001 0.17659999
C -0.23590000 0.35940000 -0.40820000
C -1.67130005 -0.11280000 -0.10080000
C 2.29310012 0.05680000 -0.19890000
C 0.81620002 -1.96120000 -0.29640001
C -2.68740010 0.79369998 -0.79740000
C 2.53670001 1.47730005 0.29150000
H 0.82510000 -0.50139999 1.27110004
H -0.13440000 1.38800001 -0.04050000
H -0.11040000 0.41119999 -1.49829996
H -1.81529999 -1.12930000 -0.48080000
H 2.42930007 0.02700000 -1.28709996
H 3.06750011 -0.58969998 0.23280001
H 1.67219996 -2.54119992 0.06560000
H -0.08450000 -2.45099998 0.08520000
H 0.80419999 -2.02300000 -1.38970006
H -3.71259999 0.45289999 -0.61330003
H -2.52940011 0.78799999 -1.88139999
H -2.60809994 1.83080006 -0.45210001
H 2.32680011 1.56680000 1.36189997
H 1.92219996 2.20300007 -0.24869999
H 3.58360004 1.75360000 0.12819999
H -2.92849994 -0.36759999 1.49450004
H -1.85000002 0.83649999 1.70420003
22
Properties=species:S:1:pos:R:3 REF_energy=-0.06075518621193643
O -1.81299996 -0.25929999 1.89800000
O -1.78719997 0.84380001 -1.58630002
O -0.69800001 -1.84290004 -1.18400002
N 0.82290000 0.80100000 0.07100000
N 1.97099996 -1.09239995 0.07670000
C -1.72500002 -0.40220001 0.48130000
C -1.64030004 0.98470002 -0.17490000
C -0.53399998 -1.30729997 0.12480000
C -0.31799999 1.69439995 0.13519999
C 0.76040000 -0.56959999 0.09910000
C 2.13470006 1.16900003 0.02780000
C 2.82629991 -0.01930000 0.03130000
H -2.64790010 -0.89260000 0.14890000
H -2.46469998 1.61699998 0.17299999
H -0.47110000 -2.14140010 0.83310002
H -0.13410001 2.50679994 -0.57650000
H -0.32740000 2.10179996 1.15240002
H 2.45379996 2.20160007 0.00500000
H -0.96759999 0.09190000 2.22420001
H -1.03020000 0.33820000 -1.92659998
H 3.89739990 -0.15719999 0.00580000
H 0.00440000 -2.50049996 -1.32710004
25
Properties=species:S:1:pos:R:3 REF_energy=-0.08474966938542972
O 0.69059998 1.14680004 -0.25330001
O -1.90160000 -2.03929996 -0.44850001
O 0.83230001 -2.47700000 0.33360001
O -1.06190002 2.67980003 -0.23720001
O 3.39010000 0.94059998 0.18680000
N -2.91160011 0.56830001 0.41760001
C -1.09080005 -1.05799997 0.20039999
C 0.36500001 -1.25569999 -0.23280001
C -1.59599996 0.33640000 -0.18610001
C 1.23160005 -0.08260000 0.23540001
C -0.61159998 1.42240000 0.26429999
C 2.66389990 -0.18170001 -0.28029999
H -1.18239999 -1.23060000 1.28030002
H 0.40560001 -1.35590005 -1.32500005
H -1.72490001 0.39260000 -1.27479994
H 1.26830006 -0.03770000 1.33229995
H -0.56140000 1.48940003 1.35899997
H 2.69810009 -0.17140000 -1.37479997
H 3.16580009 -1.08340001 0.08040000
H -2.83599997 0.53390002 1.43379998
H -3.54310012 -0.18830000 0.15690000
H -1.82790005 -1.90489995 -1.40869999
H 1.68040001 -2.69440007 -0.08800000
H -0.68820000 3.36700010 0.34029999
H 2.93869996 1.73880005 -0.13720000
26
Properties=species:S:1:pos:R:3 REF_energy=-0.08270916667426964
O -0.75250000 1.78419995 -0.34400001
N -0.00580000 -1.76680005 -0.38000000
N -2.05010009 0.00260000 0.36629999
C 2.47720003 0.37689999 -0.09710000
C 1.38300002 0.06310000 -1.13610005
C 2.00149989 1.38689995 0.95020002
C 2.91930008 -0.91439998 0.59600002
C 0.09450000 -0.43990001 -0.53230000
C -0.89330000 0.43550000 -0.17330000
C -1.16250002 -2.19959998 0.15940000
C -2.16669989 -1.33060002 0.52600002
C -1.84440005 2.60209990 0.06490000
H 3.33990002 0.79790002 -0.62790000
H 1.75660002 -0.68949997 -1.84329998
H 1.18729997 0.95510000 -1.74479997
H 1.20930004 0.99309999 1.59379995
H 1.65719998 2.31139994 0.47679999
H 2.83570004 1.65769994 1.60810006
H 3.79239988 -0.72090000 1.22920001
H 2.13949990 -1.33089995 1.24140000
H 3.20770001 -1.67659998 -0.13550000
H -1.25689995 -3.27069998 0.28850001
H -3.09590006 -1.67920005 0.95959997
H -2.02780008 2.50189996 1.13989997
H -2.74690008 2.36739993 -0.50929999
H -1.57739997 3.64380002 -0.13620000
25
Properties=species:S:1:pos:R:3 REF_energy=-0.0757363918659899
O 0.74830002 0.01070000 0.52649999
O 3.92880011 -0.02690000 -1.12989998
O 3.41370010 0.02140000 1.08819997
C -0.58520001 0.00280000 0.24040000
C -1.27240002 1.20720005 0.08950000
C -1.26170003 -1.20869994 0.09820000
C -2.63619995 1.20019996 -0.20340000
C -2.62549996 -1.21580005 -0.19480000
C -3.31270003 -0.01130000 -0.34560001
C -0.56620002 2.51440001 0.23880000
C -0.54409999 -2.50889993 0.25500000
C 1.64709997 0.01120000 -0.57990003
C 3.06609988 0.00370000 -0.08310000
H -3.18470001 2.13039994 -0.32580000
H -3.16569996 -2.15159988 -0.31090000
H -4.37430000 -0.01680000 -0.57489997
H 0.14330000 2.48930001 1.07260001
H -0.02990000 2.76329994 -0.68199998
H -1.27059996 3.32620001 0.45140001
H -0.00730000 -2.75929999 -0.66509998
H 0.16680001 -2.47189999 1.08710003
H -1.24119997 -3.32520008 0.47440001
H 1.48889995 -0.88480002 -1.18929994
H 1.49670005 0.91229999 -1.18320000
H 4.86399984 -0.03290000 -0.83340001
29
Properties=species:S:1:pos:R:3 REF_energy=-0.09842402479965617
O 3.72289991 0.92150003 1.10189998
O 3.20919991 -1.27839994 1.34500003
N 2.44079995 -1.49230003 -1.26400006
N -2.52060008 -0.05230000 -0.32580000
N -4.21390009 -1.63199997 -0.22890000
N -4.46369982 0.23320000 1.05719995
C 0.39719999 0.51639998 -0.26539999
C 1.70220006 0.85879999 -0.99849999
C -0.69080001 1.55359995 -0.56559998
C 2.83189988 -0.16230001 -0.79949999
C -2.00690007 1.23790002 0.13640000
C 3.25480008 -0.27219999 0.65179998
C -3.66310000 -0.43200001 0.15539999
H 0.05240000 -0.47700000 -0.57230002
H 0.57410002 0.47940001 0.81580001
H 2.04250002 1.84920001 -0.67040002
H 1.49409997 0.94749999 -2.07310009
H -0.34770000 2.54620004 -0.25020000
H -0.85979998 1.59899998 -1.64859998
H 3.71099997 0.15130000 -1.37510002
H -1.84309995 1.21949995 1.22080004
H -2.72059989 2.03789997 -0.09490000
H 3.24449992 -2.11840010 -1.22720003
H 2.16260004 -1.44410002 -2.24340010
H 4.00820017 0.87210000 2.03909993
H -3.74029994 -2.23760009 -0.89039999
H -5.10599995 -1.94719994 0.13620000
H -5.34509993 -0.16329999 1.36510003
H -4.20769978 1.13339996 1.44669998
22
Properties=species:S:1:pos:R:3 REF_energy=-0.05377033796133923
O -3.70300007 -1.20790005 -0.28560001
O -3.87520003 1.05799997 -0.33980000
N 2.37269998 0.00470000 0.79970002
N 4.56129980 -0.02180000 -0.01620000
N 2.87809992 -0.01930000 -1.55729997
C 0.99680001 0.01490000 0.55070001
C -1.74870002 0.03560000 0.05570000
C 0.32139999 1.22800004 0.41650000
C 0.29940000 -1.18770003 0.43770000
C -1.05130005 1.23829997 0.16900000
C -1.07330000 -1.17739999 0.19010000
C -3.17960000 0.04610000 -0.20310000
C 3.20120001 -0.01130000 -0.21750000
H 0.85600001 2.17030001 0.50370002
H 0.81720001 -2.13779998 0.54159999
H -1.55890000 2.19390011 0.06750000
H -1.57669997 -2.13669991 0.10940000
H 4.95219994 -0.01710000 0.91970003
H 5.21229982 -0.03310000 -0.79360002
H 3.60050011 -0.03080000 -2.26920009
H 1.91719997 -0.01300000 -1.88059998
H -4.66800022 -1.18970001 -0.46090001
28
Properties=species:S:1:pos:R:3 REF_energy=-0.09664935555571352
O 3.02090001 -1.33659995 0.50870001
O 5.47270012 0.07180000 0.65530002
N 3.10409999 0.09960000 0.29899999
C 0.67750001 0.15440001 -0.04270000
C -0.44180000 0.47279999 -1.03740001
C 2.05180001 0.38789999 -0.66829997
C -1.80369997 0.21160001 -0.44659999
C -2.37930012 -1.04240000 -0.58870000
C -2.46009994 1.22930002 0.22970000
C 4.42799997 0.31799999 -0.28349999
C -3.63949990 -1.28419995 -0.04210000
C -3.72049999 0.98729998 0.77620000
C -4.31020021 -0.26940000 0.64039999
H 0.56580001 0.78039998 0.85250002
H 0.57550001 -0.88700002 0.28790000
H -0.37480000 1.52030003 -1.35850000
H -0.31850001 -0.12630001 -1.94900000
H 2.16039991 -0.22620000 -1.57210004
H 2.12039995 1.43809998 -0.97850001
H -1.86430001 -1.83990002 -1.11670005
H -2.00850010 2.21070004 0.34250000
H 4.59840012 -0.32139999 -1.15820003
H 4.52530003 1.36310005 -0.59770000
H -4.09849977 -2.26290011 -0.14740001
H -4.24259996 1.77740002 1.30809999
H -5.29139996 -0.45780000 1.06620002
H 2.88000011 -1.35060000 1.47070003
H 6.31300020 0.25229999 0.20010000
25
Properties=species:S:1:pos:R:3 REF_energy=-0.07268292240615426
O -3.04949999 1.22490001 -0.79519999
O 4.21729994 0.65270001 0.42219999
N -3.23390007 -1.51250005 0.22910000
N -2.26469994 1.52320004 1.34270000
C -1.03719997 -1.01660001 -0.77550000
C -2.04060006 -0.67089999 0.33460000
C 0.36950001 -0.56959999 -0.45449999
C 0.78380001 0.69499999 -0.83920002
C 1.21850002 -1.43340003 0.21780001
C -2.51410007 0.77200001 0.21460000
C 2.08310008 1.10730004 -0.54339999
C 2.51780009 -1.02119994 0.51380002
C 2.95009995 0.24920000 0.13310000
H -1.01610005 -2.10419989 -0.93419999
H -1.34560001 -0.59270000 -1.74080002
H -1.59370005 -0.84990001 1.31920004
H 0.11710000 1.37020004 -1.36769998
H 0.89050001 -2.42359996 0.52069998
H -3.68400002 -1.37080002 -0.67439997
H -3.91260004 -1.24530005 0.94080001
H 2.40759993 2.09940004 -0.84560001
H 3.18829989 -1.69379997 1.04170001
H -1.81420004 1.14100003 2.16779995
H -2.52839994 2.50209999 1.38339996
H 4.34469986 1.55659997 0.08630000
28
Properties=species:S:1:pos:R:3 REF_energy=-0.0913359371297442
N -3.34759998 -0.31180000 -0.95010000
C -1.28590000 0.34760001 -0.03470000
C -2.11689997 -0.22270000 1.05019999
C -1.87670004 1.26409996 1.00510001
C -1.97660005 0.06150000 -1.32910001
C -3.31320000 -0.85589999 0.41580001
C 0.19000000 0.17280000 -0.02930000
C 1.02779996 1.27520001 -0.21310000
C 0.74550003 -1.09510005 0.15960000
C 2.41300011 1.11090004 -0.20819999
C 2.13059998 -1.25929999 0.16460000
C 2.96440005 -0.15629999 -0.01930000
C 4.44560003 -0.33090001 -0.01140000
H -1.68789995 -0.79000002 1.86249995
H -2.69479990 1.91530001 0.72090000
H -1.23759997 1.68299997 1.77429998
H -1.98780000 0.93519998 -1.98800004
H -1.50740004 -0.77509999 -1.86000001
H -3.18750000 -1.94360006 0.38429999
H -4.23479986 -0.61720002 0.95349997
H -3.73900008 -0.98689997 -1.60430002
H 0.61150002 2.26789999 -0.36460000
H 0.11000000 -1.96580005 0.29920000
H 3.05209994 1.97819996 -0.35100001
H 2.54819989 -2.25149989 0.31380001
H 4.93310022 0.40230000 -0.66289997
H 4.83269978 -0.20960000 1.00500000
H 4.72870016 -1.32340002 -0.37850001
28
Properties=species:S:1:pos:R:3 REF_energy=-0.09281350645855224
O 1.60850000 1.76610005 -0.53920001
N 3.13089991 -0.29400000 0.86400002
C 2.25679994 -0.54339999 -0.28400001
C 1.21449995 0.59369999 -0.36129999
C -0.20500000 0.31380001 -0.21400000
C 3.08879995 -0.58690000 -1.55920005
C -0.71880001 -0.91930002 -0.61549997
C -1.05299997 1.27919996 0.32870001
C -2.92829990 -0.22130001 0.06780000
C -2.08030009 -1.18690002 -0.47479999
C -2.41470003 1.01180005 0.46950001
C 2.48499990 -0.70510000 2.09990001
C -4.38430023 -0.50790000 0.21810000
H 1.78559995 -1.52339995 -0.17200001
H 2.44409990 -0.73470002 -2.43269992
H 3.81290007 -1.40859997 -1.53289998
H 3.64089990 0.34670001 -1.71749997
H 3.99309993 -0.82889998 0.75880003
H -0.09890000 -1.68299997 -1.07459998
H -0.67089999 2.24390006 0.65240002
H -2.47009993 -2.14890003 -0.79680002
H -3.06480002 1.77100003 0.89620000
H 2.24230003 -1.77300000 2.09739995
H 3.16540003 -0.52420002 2.93840003
H 1.57480001 -0.13060001 2.29769993
H -4.57789993 -0.96799999 1.19210005
H -4.97809982 0.40910000 0.13900000
H -4.73640013 -1.18579996 -0.56699997
18
Properties=species:S:1:pos:R:3 REF_energy=-0.06111048322348278
O 1.03059995 1.63989997 -0.72430003
O 1.84539998 0.55150002 1.09050000
N 1.28939998 -1.84689999 -0.14640000
N -3.12709999 0.21390000 0.37889999
C -0.92339998 -0.81889999 0.07220000
C 0.48640001 -0.67869997 -0.51599997
C -1.80289996 0.40349999 -0.20360000
C 1.20159996 0.53570002 0.04870000
H -1.40180004 -1.71640003 -0.34240001
H -0.85790002 -0.96759999 1.15929997
H 0.45120001 -0.60509998 -1.60860002
H -1.37109995 1.30519998 0.23999999
H -1.89709997 0.56730002 -1.28250003
H 2.19819999 -1.79550004 -0.60579997
H 0.84240001 -2.69289994 -0.49820000
H -3.57110000 -0.60380000 -0.03720000
H -3.71720004 1.01049995 0.14250000
H 1.48389995 2.42379999 -0.34709999
24
Properties=species:S:1:pos:R:3 REF_energy=-0.06736062510058494
O -1.59800005 -1.47449994 -1.19260001
O 2.85260010 -2.05609989 0.37830001
O -3.23040009 -1.34019995 0.37680000
N -3.23679996 1.38779998 0.07890000
C -0.95209998 0.97130001 0.86750001
C -1.99720001 0.67400002 -0.21910000
C 0.46250001 0.69340003 0.41350001
C 1.00220001 -0.56660002 0.61140001
C 1.19040000 1.70420003 -0.19190000
C -2.35060000 -0.80210000 -0.28330001
C 2.30749989 -0.82319999 0.19180000
C 2.49559999 1.44780004 -0.61150002
C 3.05419993 0.18400000 -0.41970000
H -1.16330004 0.39539999 1.77909994
H -1.00569999 2.02629995 1.17110002
H -1.65950000 0.99900001 -1.21000004
H 0.42510000 -1.35339999 1.08959997
H 0.76310003 2.69050002 -0.34819999
H -3.05900002 2.39179993 0.08680000
H -3.55290008 1.15489995 1.02020001
H 3.07669997 2.23169994 -1.08829999
H 4.07189989 -0.00300000 -0.75160003
H -1.84060001 -2.42389989 -1.23740005
H 3.76029992 -2.05550003 0.02870000
20
Properties=species:S:1:pos:R:3 REF_energy=-0.03361096726410451
O -4.60769987 0.04240000 0.05880000
O -2.86240005 -0.06780000 1.50670004
O 3.76640010 1.09700000 0.36010000
O 3.76959991 -1.09800005 0.32740000
N 3.17160010 0.00040000 0.22470000
C -0.95709997 0.00680000 -0.59689999
C -2.41989994 0.00890000 -0.88679999
C -0.27480000 1.21360004 -0.44299999
C -0.27140000 -1.20220006 -0.47889999
C 1.77909994 0.00250000 -0.05320000
C 1.09329998 1.21140003 -0.17120001
C 1.09669995 -1.20439994 -0.20700000
C -3.28320003 -0.01050000 0.35940000
H -2.68120003 -0.86479998 -1.49629998
H -2.68099999 0.90050000 -1.46980000
H -0.79839998 2.16210008 -0.53049999
H -0.79250002 -2.14899993 -0.59450001
H 1.59189999 2.17059994 -0.05690000
H 1.59800005 -2.16510010 -0.12110000
H -5.16599989 0.02920000 0.86540002
25
Properties=species:S:1:pos:R:3 REF_energy=-0.07704511650586277
O 1.59379995 1.81400001 -1.00179994
O -1.16199994 1.67560005 -0.90009999
O 3.11599994 0.45870000 0.99570000
O -1.40719998 0.51899999 1.70400000
O 3.07439995 -2.15159988 -0.11920000
O -2.48280001 -1.47839999 -1.09089994
O -3.64989996 -0.30399999 0.46079999
C 0.97270000 1.05460000 0.03050000
C -0.38800001 0.54320002 -0.49349999
C 1.89960003 -0.09240000 0.49160001
C -1.21969998 -0.25580001 0.52780002
C 2.23149991 -1.11380005 -0.59979999
C -2.57839990 -0.66920000 -0.00510000
H 0.81360000 1.75670004 0.85790002
H -0.24500000 -0.04760000 -1.40499997
H 1.44819999 -0.61449999 1.34140003
H -0.69540000 -1.17190003 0.81989998
H 2.76379991 -0.63400000 -1.42750001
H 1.33089995 -1.58570004 -1.00139999
H 2.39439988 2.21970010 -0.62860000
H -0.63540000 2.16989994 -1.55149996
H 3.61910009 0.81510001 0.24410000
H -1.81780005 -0.05650000 2.37190008
H 2.61560011 -2.57850003 0.62430000
H -3.36490011 -1.73049998 -1.43809998
28
Properties=species:S:1:pos:R:3 REF_energy=-0.09049445706235293
O -2.28539991 -2.08660007 0.27849999
N -0.60759997 -0.51400000 -0.16329999
N 2.03340006 0.18799999 1.50160003
C 1.83360004 -1.14820004 -0.61119998
C 1.17180002 1.21099997 -0.60949999
C 1.85720003 0.12940000 -1.44130003
C 0.37450001 -1.57889998 -0.40849999
C 2.57489991 -0.92390001 0.72130001
C 1.94920003 1.41649997 0.70779997
C -0.26980001 0.83469999 -0.32159999
C -1.21179998 1.78569996 -0.20029999
C -1.92050004 -0.91900003 0.14120001
C -2.56920004 1.43929994 0.11390000
C -2.93039989 0.16590001 0.29139999
H 2.35719991 -1.94679999 -1.15129995
H 1.20169997 2.14960003 -1.17850006
H 1.34220004 -0.01730000 -2.39890003
H 2.88989997 0.41870001 -1.67159998
H 0.03220000 -2.09170008 -1.31789994
H 0.29789999 -2.31739998 0.39950001
H 2.52379990 -1.83539999 1.32739997
H 3.63800001 -0.74049997 0.51950002
H 2.96110010 1.77890003 0.48620000
H 1.46440005 2.19129992 1.31330001
H 2.61689997 0.34880000 2.32170010
H -0.97549999 2.83870006 -0.31160000
H -3.29250002 2.24090004 0.21340001
H -3.95000005 -0.11000000 0.53289998
34
Properties=species:S:1:pos:R:3 REF_energy=-0.13784886455431344
O -0.66409999 0.48710001 -0.08380000
O 2.88339996 -0.26380000 0.13519999
O -4.24459982 -0.04710000 0.21969999
O 6.46220016 0.24640000 -0.22360000
O -6.67030001 -1.23199999 -0.51830000
C 0.49039999 -0.29179999 0.19720000
C 1.72700000 0.50800002 -0.16509999
C -1.85810006 -0.21619999 0.23790000
C -3.05159998 0.66280001 -0.08250000
C 4.07539988 0.43009999 -0.20559999
C 5.26949978 -0.44000000 0.13650000
C -5.40000010 0.74030000 -0.04180000
C -6.63719988 -0.06810000 0.29870000
C 7.61810017 -0.51569998 0.09560000
H 0.51730001 -0.55820000 1.26069999
H 0.46799999 -1.22479999 -0.37880000
H 1.70679998 0.76190001 -1.23189998
H 1.74360001 1.44749999 0.40050000
H -1.91489995 -1.14730000 -0.33890000
H -1.86570001 -0.48249999 1.30180001
H -3.03600001 0.94129997 -1.14320004
H -3.00049996 1.58770001 0.50470001
H 4.08199978 0.66750002 -1.27639997
H 4.13360023 1.37679994 0.34520000
H 5.20569992 -1.39250004 -0.40340000
H 5.27129984 -0.66530001 1.20990002
H -5.37389994 1.65310001 0.56339997
H -5.41330004 1.00829995 -1.10459995
H -7.54449987 0.51609999 0.11980000
H -6.61049986 -0.39320001 1.34350002
H 8.50070000 0.05570000 -0.20379999
H 7.61469984 -1.46440005 -0.44960001
H 7.67059994 -0.69999999 1.17299998
H -7.47160006 -1.72700000 -0.27649999
25
Properties=species:S:1:pos:R:3 REF_energy=-0.07062231823600018
O 0.31450000 2.41219997 -0.37619999
N 0.38970000 0.07360000 -0.00300000
C -1.04949999 -0.10460000 0.01380000
C 1.24090004 -1.02779996 0.11570000
C 2.57830000 -0.92470002 0.11660000
C 0.93650001 1.37100005 -0.16470000
C 3.18009996 0.37750000 -0.00300000
C 2.42600012 1.47230005 -0.12610000
C -1.60300004 -1.28569996 -0.46869999
C -1.86350000 0.90670002 0.51249999
C 3.49390006 -2.10010004 0.25990000
C -2.98709989 -1.45760000 -0.45220000
C -3.24760008 0.73470002 0.52899998
C -3.80929995 -0.44749999 0.04660000
H 0.78420001 -2.00149989 0.25119999
H 4.26179981 0.45940000 0.01480000
H 2.87100005 2.45659995 -0.21870001
H -1.00390005 -2.08189988 -0.89969999
H -1.47230005 1.81659997 0.95450002
H 2.93980002 -3.04029989 0.35319999
H 4.11999989 -1.99500000 1.15240002
H 4.14790010 -2.18729997 -0.61440003
H -3.42569995 -2.37459993 -0.83490002
H -3.88779998 1.51510000 0.92989999
H -4.88689995 -0.58190000 0.06080000
28
Properties=species:S:1:pos:R:3 REF_energy=-0.08962169461964598
O -3.02250004 0.31670001 0.85460001
O 3.02270007 -0.31690001 0.85420001
N -1.39230001 -0.98430002 -0.23119999
N -1.05739999 1.24199998 -0.05120000
N 1.05770004 -1.24210000 -0.05190000
N 1.39279997 0.98409998 -0.23210000
C -0.08400000 -0.76730001 -0.82179999
C 0.08390000 0.76740003 -0.82179999
C -1.95120001 0.20360000 0.27140000
C 1.95159996 -0.20379999 0.27050000
C -2.05789995 -2.27110004 -0.23999999
C -1.30159998 2.64369988 0.21840000
C 1.30079997 -2.64359999 0.21969999
C 2.05739999 2.27139997 -0.23860000
H -0.04310000 -1.18460000 -1.83379996
H 0.04240000 1.18490005 -1.83379996
H -3.08829999 -2.16510010 0.10950000
H -1.53180003 -2.96070004 0.42120001
H -2.06049991 -2.66199994 -1.26080000
H -2.32470012 2.78749990 0.57590002
H -1.15279996 3.21779990 -0.69959998
H -0.61129999 2.98210001 0.99339998
H 0.61129999 -2.97970009 0.99629998
H 2.32419991 -2.78800011 0.57590002
H 1.14970005 -3.21910000 -0.69709998
H 1.53340006 2.95790005 0.42739999
H 2.05599999 2.66630006 -1.25790000
H 3.08920002 2.16479993 0.10690000
27
Properties=species:S:1:pos:R:3 REF_energy=-0.08144478061044769
O -0.34540001 2.53850007 -1.15799999
O 0.98430002 2.91289997 0.63330001
O -2.43140006 -0.85869998 1.38810003
O 3.22199988 -1.63919997 0.98850000
N -1.22220004 0.20070000 -0.28870001
N 3.83130002 -1.44079995 -1.22230005
N -4.46309996 -1.35870004 -0.39010000
C -0.23360001 0.82720000 0.55239999
C 0.96929997 -0.09510000 0.78500003
C 1.82420003 -0.32640001 -0.46430001
C 0.21290000 2.18050003 0.02290000
C -2.24869990 -0.59759998 0.20110001
C 3.01970005 -1.19430006 -0.13850001