17
Properties=species:S:1:pos:R:3 REF_energy=-0.06623650882653598
C 1.01826966 -0.16550994 0.09177997
C 2.53527927 -0.07214998 -0.06544998
N 2.96295905 -0.87041968 -1.22197950
C 2.97831893 1.39414954 -0.21516992
C 4.49610806 1.55940950 -0.28454989
O 5.01838827 0.99446958 -1.47993946
H 0.68581975 0.39608985 0.97169960
H 0.69971979 -1.20575953 0.22341992
H 0.49679983 0.24012990 -0.78269970
H 3.00524902 -0.49353981 0.83086967
H 2.45147920 -0.55855978 -2.05175924
H 2.67275906 -1.84058928 -1.08247960
H 2.60584903 1.97031927 0.64049977
H 2.52759886 1.82274926 -1.11955965
H 4.98613787 1.08204961 0.57036978
H 4.75930834 2.62162900 -0.27662992
H 4.58589792 0.11565995 -1.56518936
14
Properties=species:S:1:pos:R:3 REF_energy=-0.05733121218636139
C 1.33357954 -0.29546988 -0.06489997
O 2.71424890 -0.02536999 0.13869995
C 3.01408887 1.35844946 -0.08374996
C 4.52089787 1.57603931 0.09232996
N 5.28406811 0.85431963 -0.93175966
H 1.15779948 -1.35618949 0.13234995
H 1.05054963 -0.08102997 -1.09979951
H 0.72161973 0.29460990 0.62391979
H 2.47003913 1.96486926 0.64909977
H 2.69919920 1.65162933 -1.09240949
H 4.82957792 1.20855951 1.07712960
H 4.75679827 2.64248896 0.02973999
H 4.93727779 -0.10876996 -0.94469965
H 6.25962734 0.79912972 -0.64427972
11
Properties=species:S:1:pos:R:3 REF_energy=-0.03473920429468458
C 1.02133965 0.05278998 0.10976996
C 2.48008895 0.00311000 -0.27172989
O 2.94716883 -0.97482967 -0.85856968
C 3.33129883 1.21159959 0.02565999
C 3.29342890 1.54599941 1.44614947
N 3.24243879 1.82425928 2.57193923
H 0.56997979 0.96950966 -0.27810991
H 0.91491967 0.00701000 1.19591963
H 0.49999982 -0.80241972 -0.32999986
H 2.97008872 2.04392934 -0.58689982
H 4.36055803 0.99814963 -0.28248990
13
Properties=species:S:1:pos:R:3 REF_energy=-0.047451792652371094
C 1.02775967 -1.69099939 0.04100998
C 1.94388926 -0.48895982 0.16155992
O 1.13555956 0.68533969 0.22954991
C 1.90899932 1.88536930 0.37373984
C 2.56040907 2.29844904 -0.88093966
N 3.09710884 2.62381887 -1.85820925
H 1.60561943 -2.61748886 -0.01928999
H 0.39817986 -1.60807943 -0.85111964
H 0.35400987 -1.75020933 0.90219963
H 2.60612893 -0.44293985 -0.70924973
H 2.54952908 -0.57443982 1.07037961
H 2.64015889 1.76285934 1.18073964
H 1.21305954 2.67030907 0.68812972
13
Properties=species:S:1:pos:R:3 REF_energy=-0.04797808773324419
C 1.05961955 -0.00562000 0.13358995
N 2.51152897 0.03388999 -0.01479999
C 3.09390879 1.08190966 0.84712964
C 4.01150846 -0.01747999 1.40241945
O 4.98531818 -0.03951998 2.12800932
C 3.13969874 -1.08215964 0.72015971
H 0.65124977 -0.86442971 -0.41017985
H 0.61415976 0.89504963 -0.30275989
H 0.73100972 -0.07619997 1.17749953
H 2.44285917 1.51890945 1.61111939
H 3.61865854 1.87205923 0.30511987
H 3.69588876 -1.78075933 0.09069997
H 2.50948906 -1.63279939 1.42615950
15
Properties=species:S:1:pos:R:3 REF_energy=-0.055633791845819625
C 0.95168960 -0.09427997 0.02437999
N 2.39989924 0.00982000 0.11189996
C 3.13686895 -1.24068952 0.03507999
C 3.10701895 1.20021963 -0.01208999
C 2.30543923 2.47748899 -0.04191998
O 4.33439875 1.24371958 -0.09120997
H 0.45260984 0.83538967 0.30182987
H 0.60603976 -0.88408971 0.69782972
H 0.68435973 -0.34820986 -1.00564969
H 2.72790885 -1.94436932 0.76619971
H 4.20110846 -1.10165966 0.24304990
H 3.02294898 -1.65120935 -0.97258967
H 1.61642945 2.47461891 -0.89073962
H 2.98441887 3.32748890 -0.16009994
H 1.76247931 2.60385895 0.89813972
15
Properties=species:S:1:pos:R:3 REF_energy=-0.05778612417926343
C 2.70132899 -0.80218971 -0.98027962
N 2.51883912 -0.00366000 0.22676991
C 3.00477886 1.37802947 0.06442998
C 2.52318907 2.21509910 1.24458945
C 4.53185844 1.44768941 0.03239999
O 5.28450823 0.51183981 0.29212990
H 2.32645917 -1.81452942 -0.80254966
H 3.75370860 -0.88869965 -1.26994956
H 2.13535905 -0.38551986 -1.82107925
H 3.05581880 -0.44237983 0.97879964
H 2.62476897 1.81383932 -0.86574972
H 2.85366893 1.79052937 2.19981909
H 1.43007946 2.28084898 1.26062953
H 2.92212892 3.23546886 1.19046950
H 4.94496822 2.43536901 -0.22858992
11
Properties=species:S:1:pos:R:3 REF_energy=-0.031906934857907965
N 1.03741956 -0.03175999 -0.12130996
C 2.36563921 0.09777997 -0.06523997
C 3.19877863 1.18929958 -0.02355999
C 4.51860857 0.67513973 0.02865999
C 4.39400816 -0.69476974 0.01805999
O 3.08385897 -1.05115962 -0.03662999
H 0.43374982 0.74478972 0.12122995
H 0.64398974 -0.94752961 0.06806998
H 2.89526892 2.22567916 -0.03536998
H 5.44352818 1.23248959 0.06658997
H 5.09923840 -1.51329947 0.04194998
15
Properties=species:S:1:pos:R:3 REF_energy=-0.056893959758757995
N 1.02231956 0.00856000 0.14494994
C 2.46003914 0.02516999 -0.08036996
C 3.10902882 1.06601954 0.85145968
C 4.14769840 -0.01595999 1.23228943
O 5.40513802 0.01829999 0.52518982
C 3.12119889 -1.07680964 0.76953971
H 0.54738981 -0.78788972 -0.27991989
H 0.54052979 0.83724970 -0.20277993
H 2.78150916 0.06732997 -1.12524951
H 2.50656915 1.39868951 1.70585942
H 3.51336861 1.94852924 0.34666988
H 4.34836864 -0.05576998 2.30863905
H 5.18009806 0.05090998 -0.41957983
H 3.53496861 -1.91361928 0.19888993
H 2.52267909 -1.48052943 1.59564936
15
Properties=species:S:1:pos:R:3 REF_energy=-0.05587621452448632
N 2.76636887 -1.09806955 -0.47619981
C 2.12737918 0.04339998 0.16805995
C 3.12276888 1.17144954 0.25980991
O 4.26854801 0.89533961 1.08865964
C 3.39777875 2.03765917 -0.93918961
C 2.66176915 2.60370922 0.24432991
H 2.22956920 -1.94044924 -0.28653991
H 3.68398881 -1.22950959 -0.04728998
H 1.80405927 -0.23309991 1.17755961
H 1.23934960 0.33432987 -0.40202984
H 4.03815842 0.95957965 2.03027940
H 2.84109879 1.84019923 -1.84761930
H 4.42131853 2.35102916 -1.10772955
H 3.18757868 3.32082868 0.86345965
H 1.60485935 2.80978894 0.12559995
11
Properties=species:S:1:pos:R:3 REF_energy=-0.03606540317102447
C 0.89964962 0.03790998 -0.00783000
C 2.38219905 0.08513997 0.00010000
C 3.24229884 1.16555965 0.00288000
C 4.59399843 0.71630973 0.01066000
N 4.79354811 -0.59692979 0.01372999
S 3.31515861 -1.35110950 0.00699000
H 0.47677982 1.04811954 -0.00043000
H 0.52167982 -0.48930982 0.87422967
H 0.53131980 -0.47245982 -0.90375966
H 2.93069887 2.20043921 -0.00043000
H 5.47202778 1.35056949 0.01426999
11
Properties=species:S:1:pos:R:3 REF_energy=-0.03556390138154486
C 0.94788963 0.00932000 -0.00754000
C 2.43394899 0.04450998 -0.00125000
C 3.22106886 1.18151951 0.00189000
S 4.87088823 0.72727972 0.00872000
N 4.59540844 -0.90777963 0.00764000
C 3.28115869 -1.10957956 0.00229000
H 0.52452981 1.01871955 0.00271000
H 0.57532978 -0.52380979 0.87288964
H 0.58271980 -0.50300980 -0.90330964
H 2.92265892 2.22016907 0.00047000
H 2.94516873 -2.14004922 0.00078000
14
Properties=species:S:1:pos:R:3 REF_energy=-0.04853089714932146
C 1.03720963 -0.14928995 -0.29793990
C 2.52408910 -0.02400999 0.01605999
C 3.02738905 1.43281937 0.00000000
C 2.42324924 2.20877910 1.10787964
C 1.93322933 2.84109879 2.00299931
C 4.47078800 1.45268953 0.03624999
N 5.62132788 1.46851945 0.06513998
H 0.74891967 -1.20492959 -0.33090988
H 0.80340970 0.29501987 -1.27064955
H 0.42178985 0.33999988 0.46291983
H 3.07602882 -0.61287975 -0.72883976
H 2.72416902 -0.48983982 0.99030960
H 2.70578909 1.89234936 -0.94408965
H 1.50296938 3.40406895 2.80058885
22
Properties=species:S:1:pos:R:3 REF_energy=-0.09056503518809933
C 1.23750961 -0.71607971 1.65084934
C 2.72628880 -0.39941984 1.63866937
C 3.06736875 1.03377962 1.17213953
C 2.34499931 2.13531923 1.98034918
C 2.69074893 2.18219900 3.46206880
C 4.60321808 1.19595957 1.15923965
N 5.02567816 2.50452900 0.67170972
H 1.08360958 -1.78023934 1.85589933
H 0.77752972 -0.48687983 0.68484974
H 0.71434975 -0.15461993 2.42966914
H 3.21770883 -1.11322963 0.96481961
H 3.14039874 -0.58610976 2.63693881
H 2.71737909 1.12698960 0.13386995
H 1.26046944 2.01388931 1.87592924
H 2.56672907 3.11584878 1.54088938
H 2.45030904 1.24061954 3.96303868
H 2.11435914 2.97394896 3.95218849
H 3.75025845 2.40081906 3.62022877
H 5.04587841 0.42836985 0.51416981
H 5.01423788 1.04093969 2.16366911
H 4.69761848 2.63642883 -0.28465989
H 6.04290771 2.53974891 0.63474977
16
Properties=species:S:1:pos:R:3 REF_energy=-0.06153916957685479
C 0.95993966 0.02135999 0.20409992
C 2.44934893 -0.05761998 -0.01762999
C 3.02130890 -1.22539961 -0.36722985
C 3.27502894 1.20211947 0.16688994
N 2.86277890 2.24682927 -0.76044971
C 3.17664862 1.69653940 1.54999936
C 3.10285878 2.10546923 2.67664909
H 0.49741983 0.71530974 -0.50451982
H 0.73206973 0.35528985 1.22094965
H 0.47509983 -0.95166963 0.06730997
H 2.43636918 -2.13118911 -0.49706981
H 4.09228849 -1.30961955 -0.52857983
H 4.33041811 0.98515964 -0.03977998
H 1.92436934 2.55264926 -0.51723981
H 2.81130886 1.84639931 -1.69381940
H 3.04037881 2.47263885 3.67526865
17
Properties=species:S:1:pos:R:3 REF_energy=-0.06489234346766914
C 1.09462953 -0.59264982 0.00037000
C 2.39210916 0.12904996 0.19145992
C 2.62155914 1.45899940 0.21200992
C 1.51389933 2.47959900 0.08132997
N 3.91672850 1.93989933 0.37422985
C 4.38885832 3.21552873 0.39993984
N 5.61834764 3.56434870 0.55216980
H 1.23806953 -1.41055954 -0.71306974
H 0.29438990 0.03515999 -0.39462984
H 0.76628971 -1.02568960 0.94979966
H 3.23788881 -0.54629976 0.31545988
H 0.51300979 2.04389930 0.06137998
H 1.63929939 3.05810881 -0.83997965
H 1.53043950 3.16798878 0.93351960
H 4.61538792 1.21439958 0.47454983
H 3.62376857 3.99821854 0.27430987
H 6.21101761 2.73885894 0.65581971
11
Properties=species:S:1:pos:R:3 REF_energy=-0.044388416063427805
C 0.99999964 0.00000000 0.00000000
C 2.44399905 0.00000000 0.00000000
C 3.63415861 0.00000000 0.00000000
C 5.04015779 0.00000000 0.00000000
C 5.74191809 1.13786948 0.00000000
H 0.60598981 1.02087963 0.01167999
H 0.60591978 -0.52051979 0.87824970
H 0.60591978 -0.50028980 -0.88992965
H 5.55446815 -0.95633966 0.00000000
H 5.25560808 2.10879922 0.00000000
H 6.82681704 1.11896956 0.00000000
15
Properties=species:S:1:pos:R:3 REF_energy=-0.05968964014471201
C 0.92817968 -0.18355994 0.01265000
C 2.40558887 -0.40988985 0.01744999
C 2.98463869 -1.60830939 0.18146993
C 3.29084873 0.76943970 -0.17145993
N 2.83908916 1.97119915 -0.33808988
N 3.88476849 2.87758899 -0.49004984
C 3.42610860 4.07215834 -0.65480977
H 0.64130974 0.50355983 0.81535971
H 0.37464985 -1.11675966 0.16221994
H 0.60713983 0.24210991 -0.94364965
H 2.38602901 -2.50322914 0.32351989
H 4.06270838 -1.73811924 0.17992993
H 4.37788820 0.56682980 -0.16259995
H 4.12339830 4.91275787 -0.79042971
H 2.34810925 4.30769825 -0.66822976
20
Properties=species:S:1:pos:R:3 REF_energy=-0.08045718819790904
C 0.90527964 -0.16737993 -0.35734987
C 2.42144895 -0.24848992 -0.44572982
C 3.08961892 0.76247972 0.48782983
N 4.54625845 0.62774980 0.38107985
C 5.18719816 1.69215930 -0.39018986
C 5.26758814 1.66266930 1.11702967
C 6.54034758 1.29512954 1.79871929
H 0.44685984 -0.91174966 -1.01600957
H 0.54731983 0.82152969 -0.66142976
H 0.56021982 -0.35916987 0.66385978
H 2.72917914 -0.06761998 -1.48247945
H 2.73885894 -1.26544952 -0.18512993
H 2.78965878 0.54868978 1.52149951
H 2.73160911 1.77448928 0.25488991
H 4.56731844 2.44467902 -0.86185968
H 6.05644798 1.39413941 -0.96431965
H 4.69380808 2.38848901 1.68121934
H 7.14531755 0.60155976 1.20492959
H 6.32845736 0.82178968 2.76268888
H 7.13845730 2.19229913 1.98522925
19
Properties=species:S:1:pos:R:3 REF_energy=-0.07362937152259441
C 3.27692866 -0.89091969 -1.03603959
C 2.70345902 -0.27047992 0.23147991
C 3.24134874 1.14432955 0.51857978
N 2.54113913 1.69867945 1.68277943
C 4.74122810 1.14619958 0.73580974
C 5.43401766 1.99257922 1.77969933
N 5.30975771 0.54579979 1.94982922
H 2.79613900 -1.85641921 -1.23065960
H 4.35206842 -1.07210958 -0.94500965
H 3.10450864 -0.24587990 -1.90141928
H 2.91396880 -0.93986964 1.07653952
H 1.61249936 -0.23157991 0.12346995
H 3.02077889 1.79156935 -0.33868986
H 2.86140895 1.17161953 2.49966908
H 1.54388940 1.51561940 1.60460949
H 5.28178787 0.97619963 -0.18935993
H 4.84753847 2.60506892 2.45228910
H 6.42323780 2.37320900 1.56372941
H 6.19483757 0.07930997 1.73885942
22
Properties=species:S:1:pos:R:3 REF_energy=-0.0898882389964073
C 3.28325868 -1.11726964 -0.68200976
C 2.66416907 -0.13395995 0.30307987
C 3.25205874 1.28878951 0.20920992
N 2.50735903 2.16551924 1.12139964
C 4.78248835 1.37445951 0.46344984
C 5.30656767 2.80105901 0.24620990
C 5.21593809 0.87531966 1.84617925
H 2.74887896 -2.07160926 -0.64213979
H 4.33146858 -1.31731939 -0.44662982
H 3.22071886 -0.73743975 -1.70610929
H 2.76371884 -0.53270978 1.31962955
H 1.58649933 -0.08934996 0.09681996
H 3.06654882 1.65727937 -0.80807972
H 2.58370900 1.81682932 2.07576919
H 1.51500940 2.13321900 0.89186966
H 5.28533840 0.74714971 -0.28320989
H 4.91543818 3.49756861 0.99469960
H 5.02719831 3.17091870 -0.74593973
H 6.39986753 2.82276893 0.31168988
H 4.77921820 1.47463942 2.65108919
H 6.30540752 0.93182963 1.94810927
H 4.93179846 -0.16894995 2.00168920
18
Properties=species:S:1:pos:R:3 REF_energy=-0.07082253238615466
C 2.81741881 -0.47519982 -1.69621933
C 2.47020888 0.02641999 -0.29744989
C 3.02738905 1.43281937 0.00000000
N 2.50009918 1.84607935 1.30910945
C 2.77142882 3.24415874 1.61640930
C 4.47138834 1.43281937 0.00000000
C 5.66154814 1.43281937 0.00000000
H 2.33170915 -1.43933940 -1.87847936
H 3.89555860 -0.61944979 -1.81610930
H 2.47396898 0.22687991 -2.46145916
H 2.83786893 -0.70067978 0.43803984
H 1.37578952 0.04221999 -0.20797993
H 2.64688897 2.11611915 -0.76960969
H 2.90771890 1.25333953 2.03153920
H 2.38816905 3.90753865 0.83501965
H 3.84137869 3.43552876 1.75623930
H 2.26727915 3.51159883 2.54908895
H 6.72711754 1.43291950 0.00020000
15
Properties=species:S:1:pos:R:3 REF_energy=-0.05208024836244851
C 2.14826918 -0.66081977 1.33311951
C 2.62728906 -0.17909993 -0.02919999
C 3.00429893 1.29355955 -0.01705999
N 1.94928932 2.18502927 -0.06356998
C 4.30673838 1.63645947 0.00000000
C 4.77606821 2.96180892 0.00000000
N 5.16028786 4.04679823 0.00000000
H 1.90020931 -1.72693944 1.29024947
H 1.25181961 -0.12160996 1.65857947
H 2.92318869 -0.52535981 2.09610915
H 1.84253931 -0.34844989 -0.77605969
H 3.47957873 -0.79478973 -0.34128985
H 1.07357955 1.84261930 0.32547989
H 2.16031933 3.14348888 0.21440993
H 5.07006836 0.86632967 0.02005999
17
Properties=species:S:1:pos:R:3 REF_energy=-0.06325901712581827
C 2.88040900 -0.72926968 -1.37290955
C 2.47812915 -0.00603000 -0.09056997
C 3.02738905 1.43281937 0.00000000
N 2.43327904 2.04776931 1.21270955
C 2.76348901 3.46208858 1.34400952
C 4.47138834 1.43281937 0.00000000
N 5.62239790 1.43281937 0.00000000
H 2.39618921 -1.71076941 -1.41645956
H 3.96055841 -0.89193964 -1.42078948
H 2.57488918 -0.16098994 -2.25656915
H 2.81446886 -0.60269976 0.76843971
H 1.38091958 0.01925999 -0.04824998
H 2.65965915 1.98402929 -0.87487966
H 2.76077914 1.54784942 2.03954911
H 2.47190905 4.02625847 0.45126984
H 3.82925868 3.61782885 1.53534949
H 2.21249938 3.88241839 2.19157934
19
Properties=species:S:1:pos:R:3 REF_energy=-0.07493914865269846
C 1.78623939 -1.23093951 1.03252959
C 1.85457921 -0.18941994 -0.07555997
C 3.08455896 0.71143973 0.03376998
N 4.30286837 -0.04253998 -0.19871992
C 5.56213808 0.49680981 -0.15812995
C 6.65480757 -0.24474990 -0.89225966
N 5.88590765 1.58172941 0.45823982
H 0.85352969 -1.79868925 0.95792967
H 1.81662929 -0.75753969 2.01873922
H 2.61689901 -1.93975925 0.96446961
H 0.95562965 0.43632984 -0.02367999
H 1.83853936 -0.69451970 -1.04883957
H 3.10517883 1.18056953 1.02349961
H 3.00957894 1.50825942 -0.71488971
H 4.19289827 -0.81852967 -0.84558970
H 6.74139738 -1.25773954 -0.48879981
H 7.61455727 0.26788992 -0.78344971
H 6.40024757 -0.30428991 -1.95460927
H 5.07157850 1.96536922 0.93604964
17
Properties=species:S:1:pos:R:3 REF_energy=-0.06429106605529666
C 0.98165965 -0.86501968 0.14346994
C 2.47221899 -0.57258976 0.22281992
C 2.76000881 0.91621965 0.02191999
N 4.20137835 1.15299952 0.12436996
C 4.54670811 2.57469916 -0.05213998
C 4.39109850 3.07518888 -1.43428946
N 4.26716852 3.45521855 -2.52479911
H 0.79743969 -1.93500924 0.28205988
H 0.57569975 -0.57381976 -0.83058965
H 0.43372983 -0.32264987 0.92063963
H 2.99225903 -1.16331959 -0.54116982
H 2.84908891 -0.90097970 1.19910955
H 2.23208928 1.49400949 0.78982973
H 2.38150907 1.22777963 -0.95844966
H 4.69134855 0.59910983 -0.57956976
H 5.59562778 2.69572902 0.24217992
H 3.96419859 3.19181895 0.64198977
19
Properties=species:S:1:pos:R:3 REF_energy=-0.07437482074700497
C 0.76390976 0.28489989 -0.77003968
C 1.52573943 0.53150982 0.52068985
C 2.64450908 1.54502940 0.29430988
N 2.38218904 2.88779879 0.44455984
C 1.20278955 3.45478868 1.04931962
N 3.77752876 1.03882968 -0.05368998
C 4.90076828 1.91589928 -0.33249986
H -0.02770999 -0.45366985 -0.60984975
H 1.43004942 -0.09222996 -1.55313945
H 0.30406991 1.20614946 -1.14123952
H 1.96622932 -0.40937984 0.87071967
H 0.84570968 0.87546968 1.30467951
H 3.18770885 3.50086856 0.43348983
H 1.11600959 3.14771891 2.09591913
H 0.29996988 3.15835881 0.50791979
H 1.26320958 4.54746819 1.02213967
H 5.74034786 1.31586957 -0.69702971
H 5.23524809 2.43355918 0.57219982
H 4.66211843 2.64670897 -1.11262953
13
Properties=species:S:1:pos:R:3 REF_energy=-0.04485306317680693
C 1.68152940 1.54964948 -1.45249951
C 2.56422925 1.28747952 -0.68030977
C 3.61483860 0.97284961 0.24706990
N 4.78342819 1.10451949 -0.27400988
N 5.75628757 0.80474967 0.61189979
C 6.86376762 0.23127991 -0.15605995
C 6.90041733 1.65942943 0.28694987
H 0.90664971 1.78415930 -2.14438939
H 3.37395859 0.65978974 1.27620947
H 6.70400763 0.01458999 -1.20557964
H 7.47577763 -0.48523983 0.37551984
H 7.53750706 1.92008924 1.12163961
H 6.76623774 2.43893909 -0.45356983
19
Properties=species:S:1:pos:R:3 REF_energy=-0.07622731415096595
C 0.96641964 0.00225000 -0.05304998
C 2.50782895 -0.00056000 -0.00226000
C 2.95705891 -0.00139000 1.46095943
C 3.06426907 -1.22292948 -0.76829976
C 3.33233881 -0.67021978 -2.13239932
C 3.33420873 0.66660976 -2.13237929
C 3.06868887 1.21998966 -0.76824969
H 0.59265977 0.00382000 -1.08292961
H 0.55945981 0.88724965 0.44884986
H 0.55632979 -0.88215965 0.44732982
H 4.04971838 -0.00416000 1.54116940
H 2.58330894 -0.88665968 1.98701918
H 2.58788896 0.88602966 1.98664927
H 2.34471917 -2.04701924 -0.80850965
H 3.99917841 -1.59851944 -0.33741990
H 3.53367877 -1.28674948 -2.99731898
H 3.53826880 1.28229952 -2.99723887
H 4.00499868 1.59212935 -0.33729988
H 2.35216928 2.04672933 -0.80828971
17
Properties=species:S:1:pos:R:3 REF_energy=-0.0633563596377944
C 0.99120963 -0.07803997 0.09555996
C 2.52742910 -0.01107000 0.06991997
C 2.98446894 -0.82977968 -1.08974957
N 3.34630871 -1.49094951 -1.97418916
N 3.03521872 1.39185953 0.02592999
C 2.54017901 2.20050931 1.14393961
C 4.50526810 1.42410946 0.03148999
H 0.58123976 0.32417989 1.02727962
H 0.64300978 -1.11539960 0.01957999
H 0.55297977 0.47583982 -0.74308968
H 2.89573884 -0.49479982 0.98511958
H 1.45903945 2.35514927 1.07542968
H 2.98022866 3.20455885 1.12092948
H 2.77307892 1.74831927 2.11459923
H 4.92169809 0.93445963 -0.85474968
H 4.92281818 0.94503963 0.92457968
H 4.86704826 2.45843911 -0.00300000
15
Properties=species:S:1:pos:R:3 REF_energy=-0.054501611241551284
C 2.07454920 -0.49859983 1.31241953
C 2.33156919 0.01760999 -0.09262996
C 2.87475896 1.41874945 -0.05390998
N 2.23632932 2.54855919 -0.03569999
N 0.88409966 2.46486926 -0.06267998
C 4.30185843 1.62522948 0.01050000
C 5.48978806 1.79277933 0.06551997
H 1.68949938 -1.52224934 1.27699959
H 1.34230947 0.12405995 1.83643925
H 2.99441886 -0.49978980 1.90657926
H 1.40886950 -0.01227000 -0.68056977
H 3.05615878 -0.63302976 -0.59558976
H 0.50507981 3.37333870 -0.34581986
H 0.52266979 2.33534908 0.88652968
H 6.54189730 1.95336926 0.11344995
20
Properties=species:S:1:pos:R:3 REF_energy=-0.08127392401756106
C 2.22334933 -0.49778980 -1.35179949
C 2.36317921 0.13640995 0.02665999
N 3.30069876 1.26083946 -0.01544999
C 2.65618896 2.48364925 -0.55626982
C 3.32899880 3.28124881 0.58612972
C 4.66638803 3.93039846 0.26358992
C 3.38266873 1.91657937 1.31346953
H 1.56563938 -1.37112951 -1.29752946
H 3.19390869 -0.83168972 -1.73306942
H 1.79218936 0.20266993 -2.07400918
H 2.75470901 -0.62510973 0.71238977
H 1.37153947 0.42255983 0.40130985
H 1.56004941 2.50890899 -0.51352984
H 2.96926904 2.75117874 -1.57057941
H 2.66086888 4.00684881 1.06598961
H 5.35779810 3.23157883 -0.21716993
H 5.14100838 4.30045843 1.17804945
H 4.52424860 4.78217793 -0.40928987
H 4.30331850 1.70770931 1.86663926
H 2.52920914 1.74875939 1.98268926
20
Properties=species:S:1:pos:R:3 REF_energy=-0.07801576440561697
C 2.61219907 -1.45573938 -0.35166985
C 2.01075912 -0.09486996 -0.01189000
N 1.06796956 -0.20022991 1.09866965
C 3.06350899 0.95407963 0.33051988
C 4.06241846 0.59369975 1.40654945
C 3.56878877 1.83158934 -0.80018967
C 2.65025902 2.41161919 0.23494992
H 3.35104871 -1.36258948 -1.15505958
H 1.83516932 -2.15124917 -0.68758976
H 3.11336875 -1.91128933 0.50940984
H 1.44221950 0.24288991 -0.88751966
H 1.54131949 -0.58574980 1.91282928
H 0.34041989 -0.87054968 0.85752970
H 4.72283840 1.43566954 1.64206946
H 4.69892836 -0.23520991 1.08239961
H 3.55953860 0.30597988 2.33436918
H 3.17245865 1.68146944 -1.79834938
H 4.60578823 2.14870930 -0.79039973
H 3.06128883 3.11605883 0.94908965
H 1.62834942 2.63644910 -0.05213998
19
Properties=species:S:1:pos:R:3 REF_energy=-0.07374344173067349
C 3.14628863 -1.14815962 -0.48754984
C 2.43389893 0.06314997 0.10960995
N 1.92575932 -0.26263991 1.44348955
C 3.37153888 1.23642945 0.22608991
C 3.71053863 2.07055926 -0.99405962
N 2.84950876 2.59547901 0.05564998
C 3.50055885 3.56730866 0.92709965
H 3.51529860 -0.92219967 -1.49398947
H 2.46952891 -2.00614929 -0.56382978
H 4.00999832 -1.44704950 0.11765996
H 1.58123946 0.32173985 -0.52981985
H 2.67929912 -0.62153977 2.02514935
H 1.24073958 -1.01189959 1.36743951
H 4.16177845 1.07385969 0.95133966
H 3.21748877 1.84634936 -1.93336928
H 4.71420813 2.46679902 -1.08877957
H 3.01237869 3.56752872 1.90721929
H 3.39145875 4.57045841 0.50217980
H 4.57090807 3.38679886 1.08531964
20
Properties=species:S:1:pos:R:3 REF_energy=-0.08354143657441115
C 1.03209960 -0.28634989 -0.03047999
C 2.55987906 -0.23622991 -0.01176000
N 3.08751869 -1.03469956 -1.11881948
C 3.05324888 1.21716952 -0.09445997
C 4.57916832 1.33629954 -0.00315000
C 5.01539803 2.77525902 -0.03610999
C 5.70262814 3.37507868 0.94394970
H 0.61638975 0.27389991 0.81387973
H 0.67090976 -1.31791949 0.04694998
H 0.62670982 0.14525995 -0.95275962
H 2.91099882 -0.67838979 0.92808962
H 2.74590898 -0.66460973 -2.00537920
H 2.72939897 -1.98720920 -1.05588961
H 2.60097885 1.79186940 0.72505975
H 2.70303917 1.67928946 -1.02720964
H 5.05320787 0.82071966 -0.84659970
H 4.93315792 0.84649968 0.91226965
H 4.76085806 3.34491897 -0.92775965
H 5.98918819 2.84530902 1.84671926
H 5.99849796 4.41577864 0.85689968
21
Properties=species:S:1:pos:R:3 REF_energy=-0.0842076853023268
C 1.09337962 -0.23947990 0.13706996
C 2.61652899 -0.09192996 0.20020992
N 3.19676876 -0.88009965 -0.89616966
C 3.09588885 1.38627946 0.12296995
C 2.44824910 2.24111915 1.22498953
C 4.63689852 1.46523941 0.21622992
N 5.13534784 2.83507895 0.06344998
H 0.61594975 0.18236993 1.02634954
H 0.80079967 -1.29506946 0.09694996
H 0.67911977 0.25903991 -0.74588972
H 2.96552896 -0.52920979 1.14398956
H 2.83528900 -0.54194975 -1.78836930
H 2.88690877 -1.84924924 -0.82054973
H 2.78515911 1.80396926 -0.84510970
H 2.66668892 1.83428931 2.21836925
H 1.36138952 2.28958893 1.10584962
H 2.80662894 3.27505875 1.19696951
H 5.10447836 0.85344970 -0.56215978
H 4.97389841 1.07631958 1.18386948
H 4.87485838 3.18253899 -0.85897970
H 6.15487766 2.81762910 0.07998997
17
Properties=species:S:1:pos:R:3 REF_energy=-0.06597545001748073
C 1.91301930 -0.23678991 1.42628944
C 2.29686904 0.22370991 0.02727999
N 2.89589882 1.57597947 0.06394997
C 2.08056927 2.70615888 0.04000998
C 0.74816972 2.81094909 -0.02748999
C 4.28070831 1.62923932 0.17899993
N 5.09462833 2.62600899 0.20086992
H 1.51605952 -1.25572956 1.39312947
H 1.14647961 0.41065985 1.86213934
H 2.77817917 -0.22813992 2.09588909
H 1.42206943 0.19925992 -0.63388973
H 3.00318885 -0.49537984 -0.40802982
H 2.63694906 3.63773870 0.09321997
H 0.09029996 1.95225918 -0.07523997
H 0.27808991 3.78955865 -0.03021999
H 4.73333836 0.62536979 0.26404992
H 4.58959818 3.50571871 0.10680996
21
Properties=species:S:1:pos:R:3 REF_energy=-0.08553406332626401
C 2.83380890 -0.68844974 1.36353946
C 2.55653906 -0.17293993 -0.04938998
N 1.10337961 -0.16869995 -0.28843990
C 3.13867903 1.24863958 -0.27965990
N 4.59576845 1.37904954 -0.05814998
C 5.36266804 0.61617976 -1.04603958
C 4.98209810 2.79190898 -0.11998995
H 3.90955853 -0.77512974 1.54919934
H 2.39882898 -1.68389940 1.51000941
H 2.41197896 -0.02126999 2.12392926
H 2.99525881 -0.86912966 -0.77220976
H 0.64978975 0.42511985 0.40616983
H 0.73624969 -1.10710955 -0.13111995
H 2.62370896 1.93027925 0.41170985
H 2.88277888 1.58395946 -1.29454947
H 5.18770838 -0.45836982 -0.93812966
H 6.43790770 0.76220971 -0.89269966
H 5.12099791 0.90870965 -2.07377911
H 4.45656824 3.36935854 0.64853972
H 4.76529789 3.23780870 -1.09708965
H 6.05240774 2.90707898 0.08267996
15
Properties=species:S:1:pos:R:3 REF_energy=-0.05622387503120074
C 0.91397965 -0.26557991 -0.52045983
C 2.17430925 -0.41968983 0.31500986
N 2.87183881 0.86408967 0.42088982
N 4.02642870 0.83382964 1.13527966
C 4.67379808 1.94695926 1.11573958
C 5.88312769 1.89061928 1.88652933
C 6.89723730 1.84647930 2.53091908
H 0.39507985 -1.22623956 -0.60027981
H 1.15022957 0.07570997 -1.53395951
H 0.22275992 0.45369983 -0.06831998
H 2.83080912 -1.16177952 -0.15289994
H 1.90876925 -0.78481966 1.31356955
H 2.22107911 1.56212950 0.79056966
H 4.38889837 2.87195897 0.58966976
H 7.79357719 1.79410934 3.10291886
16
Properties=species:S:1:pos:R:3 REF_energy=-0.05645280616416826
C 0.96941960 0.03745999 -0.20472993
N 2.28966928 0.52295977 0.16742992
C 3.46187878 -0.30514988 -0.39346984
C 4.24524832 1.05664957 -0.10275996
C 2.90039897 1.54560947 -0.81045967
C 2.92999887 0.90740967 -2.15476918
C 3.30663872 -0.34417987 -1.87071919
H 0.21932991 0.76359969 0.12517996
H 0.76370972 -0.89746970 0.32687989
H 0.78974974 -0.14501995 -1.26797950
H 3.74256873 -1.21171963 0.14048994
H 4.38158846 1.33615947 0.94951963
H 5.18316841 1.21900952 -0.64332980
H 2.58901882 2.58542895 -0.71809977
H 2.70190883 1.35339952 -3.10791874
H 3.46417856 -1.17714953 -2.53432918
20
Properties=species:S:1:pos:R:3 REF_energy=-0.08048812794319105
C 1.07413960 -0.00792000 0.19175993
N 2.51726913 0.01430000 -0.00504000
C 3.15338874 1.03961957 0.85697967
C 4.26049852 -0.00268000 1.18856955
C 4.67874861 -0.04206999 2.65373921
C 5.47417784 0.03905999 0.25792992
C 3.17689872 -1.04784966 0.79254973
H 0.64209974 -0.87576962 -0.31863987
H 0.62355977 0.88654965 -0.25276992
H 0.77189970 -0.05027998 1.24553955
H 2.56236887 1.36272943 1.72452939
H 3.48879862 1.93462932 0.32261986
H 3.81121874 -0.07138997 3.32163882
H 5.26831770 0.84324968 2.91462898
H 5.28756762 -0.92836964 2.86179876
H 5.18158817 0.06517997 -0.79727972
H 6.10552788 -0.84385973 0.40411985
H 6.08300781 0.92797965 0.45435986
H 3.53226876 -1.90018928 0.20418993
H 2.59453893 -1.43714941 1.63829947
18
Properties=species:S:1:pos:R:3 REF_energy=-0.07346639885512096
C 0.93203962 0.02628999 -0.39912987
N 2.28235912 -0.00245000 0.15378994
C 3.05776882 1.19311965 -0.21477993
C 3.51251888 1.24840951 -1.68569934
C 4.01177835 -0.07603997 -2.17828918
C 3.77650857 -1.19840956 -1.48667943
C 2.99844885 -1.23718953 -0.19982992
H 0.40426984 0.92694968 -0.06531998
H 0.34981987 -0.82212967 -0.02104999
H 0.91063970 -0.00245000 -1.49273944
H 3.94651842 1.22952950 0.42931986
H 2.49199915 2.10212922 0.02462999
H 4.31055832 1.99349928 -1.78111935
H 2.68615890 1.57156944 -2.32909894
H 4.58007812 -0.10366996 -3.10377884
H 4.17274857 -2.14314914 -1.84707940
H 2.30325913 -2.08576918 -0.23140991
H 3.70465875 -1.46466947 0.60821980
15
Properties=species:S:1:pos:R:3 REF_energy=-0.05814352193037986
C 1.20342958 -0.23622991 -0.63457978
C 2.47462916 -0.03357999 -0.26823989
C 3.11510897 1.25523949 -0.16395994
C 4.41903830 1.40353954 0.14597994
C 4.79234791 2.85515904 0.19057994
C 3.49188876 3.51782870 -0.13626996
C 2.54972887 2.58488894 -0.33278987
H 0.80216974 -1.24330950 -0.68745977
H 0.53336978 0.57651979 -0.89181966
H 3.08660889 -0.90127963 -0.02889999
H 5.11886835 0.60398978 0.33922985
H 5.55657816 3.09018898 -0.55571979
H 5.14488792 3.14213896 1.18547952
H 3.34349871 4.58487797 -0.19890992
H 1.51699936 2.77853894 -0.57847977
15
Properties=species:S:1:pos:R:3 REF_energy=-0.05499902460836226
C 1.08972967 -0.01927999 -0.15458994
N 2.50034904 0.05298998 0.19220993
C 3.07564878 1.19847953 0.14013994
N 4.39368820 1.34972954 0.46917984
C 4.72807837 2.74275899 0.61625975
C 3.47498870 3.38247871 0.09084997
C 2.49575901 2.51409888 -0.20337993
H 0.76676971 -1.06440961 -0.11342996
H 0.90241969 0.33814988 -1.17260957
H 0.47411981 0.54180980 0.55631977
H 4.78655815 0.65395975 1.08784962
H 5.59975815 3.00523877 0.01133000
H 4.89748859 3.00866866 1.66362929
H 3.38369870 4.45260811 -0.02714999
H 1.50567949 2.70399904 -0.57211983
20
Properties=species:S:1:pos:R:3 REF_energy=-0.08168571903014654
C 1.11058962 2.25256920 -0.28805989
N 2.55183887 2.21177912 -0.49398983
C 3.17264867 1.18707955 0.34719986
C 4.67416811 1.14929962 0.09439997
C 5.52608776 2.31693912 0.66754973
C 6.61594772 1.27224958 0.97980958
C 5.49204779 0.21767992 1.02858961
H 0.67034972 3.01540875 -0.93742961
H 0.86016971 2.50712919 0.74832976
H 0.64560980 1.29468954 -0.54288983
H 2.94549894 3.12359881 -0.26268989
H 2.74831891 0.20501992 0.10681996
H 2.96927881 1.38960946 1.40576947
H 4.90079784 0.95250964 -0.96470964
H 5.10427809 2.79101896 1.56172943
H 5.80791759 3.09399891 -0.04765998
H 7.32885695 1.11968958 0.16159995
H 7.16742706 1.42351949 1.91092920
H 5.74550772 -0.76280969 0.61749977
H 5.06180811 0.08306997 2.02874923
15
Properties=species:S:1:pos:R:3 REF_energy=-0.05605665668690163
C 0.99999964 0.00000000 0.00000000
C 2.19015908 0.00000000 0.00000000
C 3.59615874 0.00000000 0.00000000
C 4.34597874 -1.10460961 -0.07331997
C 5.80320787 -0.78239971 -0.05570998
C 5.81929779 0.72312975 -0.32011986
C 4.43658829 1.23511946 0.08093997
H -0.06489997 -0.00190000 -0.00017000
H 3.96245837 -2.11417913 -0.12311995
H 6.23600769 -1.02558959 0.92072964