8
Properties=species:S:1:pos:R:3 REF_energy=-0.03277614043837296
C 0.00000000 0.00000000 0.00000000
C 1.01918000 0.00000000 0.00000000
H -0.37638738 0.00000000 1.04465233
H -0.37638738 -0.90469546 -0.52232617
H -0.37638738 0.90469546 -0.52232617
H 1.39556738 -0.90469546 0.52232617
H 1.39556738 0.90469546 0.52232617
H 1.39556738 -0.00000000 -1.04465233
8
Properties=species:S:1:pos:R:3 REF_energy=-0.03389040895574447
C 0.00000000 0.00000000 0.00000000
C 1.11918000 0.00000000 0.00000000
H -0.37638738 0.00000000 1.04465233
H -0.37638738 -0.90469546 -0.52232617
H -0.37638738 0.90469546 -0.52232617
H 1.49556738 -0.90469546 0.52232617
H 1.49556738 0.90469546 0.52232617
H 1.49556738 -0.00000000 -1.04465233
8
Properties=species:S:1:pos:R:3 REF_energy=-0.03473357683584871
C 0.00000000 0.00000000 0.00000000
C 1.21918000 0.00000000 0.00000000
H -0.37638738 0.00000000 1.04465233
H -0.37638738 -0.90469546 -0.52232617
H -0.37638738 0.90469546 -0.52232617
H 1.59556738 -0.90469546 0.52232617
H 1.59556738 0.90469546 0.52232617
H 1.59556738 -0.00000000 -1.04465233
8
Properties=species:S:1:pos:R:3 REF_energy=-0.035341165454792545
C 0.00000000 0.00000000 0.00000000
C 1.31918000 0.00000000 0.00000000
H -0.37638738 0.00000000 1.04465233
H -0.37638738 -0.90469546 -0.52232617
H -0.37638738 0.90469546 -0.52232617
H 1.69556738 -0.90469546 0.52232617
H 1.69556738 0.90469546 0.52232617
H 1.69556738 -0.00000000 -1.04465233
8
Properties=species:S:1:pos:R:3 REF_energy=-0.03578060844176972
C 0.00000000 0.00000000 0.00000000
C 1.41918000 0.00000000 0.00000000
H -0.37638738 0.00000000 1.04465233
H -0.37638738 -0.90469546 -0.52232617
H -0.37638738 0.90469546 -0.52232617
H 1.79556738 -0.90469546 0.52232617
H 1.79556738 0.90469546 0.52232617
H 1.79556738 -0.00000000 -1.04465233
8
Properties=species:S:1:pos:R:3 REF_energy=-0.03612726448852266
C 0.00000000 0.00000000 0.00000000
C 1.51918000 0.00000000 0.00000000
H -0.37638738 0.00000000 1.04465233
H -0.37638738 -0.90469546 -0.52232617
H -0.37638738 0.90469546 -0.52232617
H 1.89556738 -0.90469546 0.52232617
H 1.89556738 0.90469546 0.52232617
H 1.89556738 -0.00000000 -1.04465233
8
Properties=species:S:1:pos:R:3 REF_energy=-0.036450070047900573
C 0.00000000 0.00000000 0.00000000
C 1.61918000 0.00000000 0.00000000
H -0.37638738 0.00000000 1.04465233
H -0.37638738 -0.90469546 -0.52232617
H -0.37638738 0.90469546 -0.52232617
H 1.99556738 -0.90469546 0.52232617
H 1.99556738 0.90469546 0.52232617
H 1.99556738 -0.00000000 -1.04465233
8
Properties=species:S:1:pos:R:3 REF_energy=-0.03680685655275873
C 0.00000000 0.00000000 0.00000000
C 1.71918000 0.00000000 0.00000000
H -0.37638738 0.00000000 1.04465233
H -0.37638738 -0.90469546 -0.52232617
H -0.37638738 0.90469546 -0.52232617
H 2.09556738 -0.90469546 0.52232617
H 2.09556738 0.90469546 0.52232617
H 2.09556738 -0.00000000 -1.04465233
8
Properties=species:S:1:pos:R:3 REF_energy=-0.03724432679223372
C 0.00000000 0.00000000 0.00000000
C 1.81918000 0.00000000 0.00000000
H -0.37638738 0.00000000 1.04465233
H -0.37638738 -0.90469546 -0.52232617
H -0.37638738 0.90469546 -0.52232617
H 2.19556738 -0.90469546 0.52232617
H 2.19556738 0.90469546 0.52232617
H 2.19556738 -0.00000000 -1.04465233
8
Properties=species:S:1:pos:R:3 REF_energy=-0.037797567812007604
C 0.00000000 0.00000000 0.00000000
C 1.91918000 0.00000000 0.00000000
H -0.37638738 0.00000000 1.04465233
H -0.37638738 -0.90469546 -0.52232617
H -0.37638738 0.90469546 -0.52232617
H 2.29556738 -0.90469546 0.52232617
H 2.29556738 0.90469546 0.52232617
H 2.29556738 -0.00000000 -1.04465233
8
Properties=species:S:1:pos:R:3 REF_energy=-0.03848717283675934
C 0.00000000 0.00000000 0.00000000
C 2.01918000 0.00000000 0.00000000
H -0.37638738 0.00000000 1.04465233
H -0.37638738 -0.90469546 -0.52232617
H -0.37638738 0.90469546 -0.52232617
H 2.39556738 -0.90469546 0.52232617
H 2.39556738 0.90469546 0.52232617
H 2.39556738 -0.00000000 -1.04465233
8
Properties=species:S:1:pos:R:3 REF_energy=-0.03931878432332969
C 0.00000000 0.00000000 0.00000000
C 2.11918000 0.00000000 0.00000000
H -0.37638738 0.00000000 1.04465233
H -0.37638738 -0.90469546 -0.52232617
H -0.37638738 0.90469546 -0.52232617
H 2.49556738 -0.90469546 0.52232617
H 2.49556738 0.90469546 0.52232617
H 2.49556738 -0.00000000 -1.04465233
8
Properties=species:S:1:pos:R:3 REF_energy=-0.04028591905180623
C 0.00000000 0.00000000 0.00000000
C 2.21918000 0.00000000 0.00000000
H -0.37638738 0.00000000 1.04465233
H -0.37638738 -0.90469546 -0.52232617
H -0.37638738 0.90469546 -0.52232617
H 2.59556738 -0.90469546 0.52232617
H 2.59556738 0.90469546 0.52232617
H 2.59556738 -0.00000000 -1.04465233
8
Properties=species:S:1:pos:R:3 REF_energy=-0.04137669478247058
C 0.00000000 0.00000000 0.00000000
C 2.31918000 0.00000000 0.00000000
H -0.37638738 0.00000000 1.04465233
H -0.37638738 -0.90469546 -0.52232617
H -0.37638738 0.90469546 -0.52232617
H 2.69556738 -0.90469546 0.52232617
H 2.69556738 0.90469546 0.52232617
H 2.69556738 -0.00000000 -1.04465233
8
Properties=species:S:1:pos:R:3 REF_energy=-0.04257749392865623
C 0.00000000 0.00000000 0.00000000
C 2.41918000 0.00000000 0.00000000
H -0.37638738 0.00000000 1.04465233
H -0.37638738 -0.90469546 -0.52232617
H -0.37638738 0.90469546 -0.52232617
H 2.79556738 -0.90469546 0.52232617
H 2.79556738 0.90469546 0.52232617
H 2.79556738 -0.00000000 -1.04465233
8
Properties=species:S:1:pos:R:3 REF_energy=-0.04387313712488866
C 0.00000000 0.00000000 0.00000000
C 2.51918000 0.00000000 0.00000000
H -0.37638738 0.00000000 1.04465233
H -0.37638738 -0.90469546 -0.52232617
H -0.37638738 0.90469546 -0.52232617
H 2.89556738 -0.90469546 0.52232617
H 2.89556738 0.90469546 0.52232617
H 2.89556738 -0.00000000 -1.04465233
