19
Properties=species:S:1:pos:R:3 REF_energy=-0.07502012491950927
C 2.30817890 -0.45705983 -1.49677944
C 2.45978904 0.03264999 -0.06580997
C 3.25824881 1.32823944 -0.02455999
C 2.55439901 2.61422920 -0.53048980
C 3.25686884 3.37089872 0.61302978
C 3.34372878 2.02309918 1.36692953
O 4.54197836 1.78631938 2.12676930
H 1.75188935 -1.39906943 -1.51964939
H 3.28600883 -0.62525976 -1.95946932
H 1.76883936 0.27276990 -2.10879922
H 2.97390890 -0.73529971 0.52367979
H 1.46743941 0.17129993 0.37896985
H 4.25247812 1.19321954 -0.47586983
H 1.46196949 2.60072923 -0.43826985
H 2.82085896 2.93404889 -1.54121935
H 4.22882843 3.79462862 0.33567986
H 2.65687919 4.14594841 1.09708965
H 2.46241903 1.84385931 1.99615932
H 5.27825832 1.97188926 1.51966941
13
Properties=species:S:1:pos:R:3 REF_energy=-0.0461889240036546
C 1.00157964 -0.21474993 0.00282000
C 2.48757887 -0.03947999 0.00312000
C 3.13901877 1.13798952 0.00000000
C 2.43601918 2.35561895 0.00000000
C 1.84093940 3.38632870 0.00000000
C 4.54501867 1.13798952 0.00000000
C 5.73517752 1.13798952 0.00000000
H 0.75515974 -1.28169954 -0.02305999
H 0.54789978 0.24830991 -0.87935966
H 0.55507982 0.20454992 0.90998966
H 3.06490898 -0.96214962 0.00597000
H 1.31123948 4.31014872 0.00000000
H 6.80011749 1.14149952 0.00000000
12
Properties=species:S:1:pos:R:3 REF_energy=-0.039765790478951346
C 2.74081898 -1.23520958 0.43991983
C 2.25524926 -0.01649999 0.16832994
C 3.03814888 1.17278957 0.09911996
C 2.59811902 2.46325898 -0.17021994
N 3.55233860 3.46233869 -0.18412994
C 4.72408819 2.93182874 0.07532997
S 4.74756813 1.24318957 0.34465986
H 2.07228923 -2.09039927 0.47346982
H 3.78850865 -1.43476939 0.63526976
H 1.18649960 0.08064996 -0.01330000
H 1.56686938 2.73184896 -0.36738986
H 5.62876797 3.52416873 0.11790996
19
Properties=species:S:1:pos:R:3 REF_energy=-0.07622731415096595
C 0.96641964 0.00225000 -0.05304998
C 2.50782895 -0.00056000 -0.00226000
C 2.95705891 -0.00139000 1.46095943
C 3.06426907 -1.22292948 -0.76829976
C 3.33233881 -0.67021978 -2.13239932
C 3.33420873 0.66660976 -2.13237929
C 3.06868887 1.21998966 -0.76824969
H 0.59265977 0.00382000 -1.08292961
H 0.55945981 0.88724965 0.44884986
H 0.55632979 -0.88215965 0.44732982
H 4.04971838 -0.00416000 1.54116940
H 2.58330894 -0.88665968 1.98701918
H 2.58788896 0.88602966 1.98664927
H 2.34471917 -2.04701924 -0.80850965
H 3.99917841 -1.59851944 -0.33741990
H 3.53367877 -1.28674948 -2.99731898
H 3.53826880 1.28229952 -2.99723887
H 4.00499868 1.59212935 -0.33729988
H 2.35216928 2.04672933 -0.80828971
16
Properties=species:S:1:pos:R:3 REF_energy=-0.05888113847519216
C 1.05332959 0.29750988 -0.74495971
C 2.45430899 0.88442963 -0.81240970
C 2.65234900 1.95525932 0.21629992
N 3.18057871 1.62507939 1.53766942
C 4.04516840 2.37314892 0.61408979
C 4.30141830 3.78108859 0.99078959
O 4.70409822 4.58538818 0.15951994
H 0.92948967 -0.48176983 -1.50285935
H 0.29731989 1.06923962 -0.92179966
H 0.85884970 -0.14339995 0.23769991
H 2.61544919 1.31628954 -1.80727923
H 3.18944883 0.07905997 -0.69156969
H 1.88915920 2.72532892 0.17495994
H 3.46883869 0.64584976 1.58467948
H 4.89095783 1.83836937 0.19837992
H 4.12774849 4.06176853 2.04307938
12
Properties=species:S:1:pos:R:3 REF_energy=-0.04623303265311318
C 1.13636959 -0.03925999 0.15620995
N 2.41826916 -0.04463998 0.31471989
N 3.00168872 1.13232958 -0.02534999
C 4.46623802 1.15369952 0.00814000
C 4.95750856 2.48276901 -0.38184988
C 5.36227798 3.56849861 -0.69931978
H 0.55539978 -0.94204962 0.40170985
H 0.56952977 0.82835966 -0.22483991
H 2.66378903 1.90121925 0.55823976
H 4.86232805 0.39758986 -0.67883974
H 4.81965828 0.90867960 1.01620960
H 5.72176790 4.52992868 -0.98582959
17
Properties=species:S:1:pos:R:3 REF_energy=-0.06497154369185099
C 2.30334926 -0.45947984 -1.50824940
C 2.39334917 0.06383997 -0.08388997
C 3.25228882 1.32077956 -0.02627999
C 2.64772916 2.62061906 -0.64084977
C 3.16372895 3.34732890 0.61822975
O 3.37853861 4.50748825 0.89781970
C 3.32758880 2.01019931 1.36991954
H 1.70441937 -1.37484944 -1.54029942
H 3.29770875 -0.68685979 -1.90631926
H 1.83732927 0.27630988 -2.17139912
H 2.83177900 -0.71131974 0.55500978
H 1.38496947 0.26481989 0.29590988
H 4.26109838 1.11981952 -0.41769984
H 1.55715942 2.64418912 -0.72566968
H 3.10553885 2.94843888 -1.57631946
H 4.27872801 1.89538932 1.89392936
H 2.49584913 1.80235934 2.04945922
12
Properties=species:S:1:pos:R:3 REF_energy=-0.03943025743729933
N 0.99999964 0.00000000 0.00000000
C 2.15100908 0.00000000 0.00000000
C 3.55700850 0.00000000 0.00000000
C 4.33528805 -1.07953966 -0.06686997
C 5.75802803 -0.67012978 -0.03978999
O 5.75116777 0.76783973 -0.04329998
C 4.38896799 1.22157955 0.07902997
H 4.00044870 -2.10569930 -0.12678996
H 6.26353788 -1.02018964 0.86493963
H 6.30183744 -1.02186966 -0.92153960
H 4.18332815 1.92253923 -0.73531973
H 4.27876854 1.73378932 1.03968954
15
Properties=species:S:1:pos:R:3 REF_energy=-0.057078453035213306
O 2.23197937 -0.37811986 1.39555943
C 2.45580888 -0.01974999 0.04247998
C 2.99270892 1.35949957 0.00326000
C 4.13733864 1.79374933 -0.52819979
C 4.25874853 3.25624895 -0.32880986
O 3.01113892 3.67581868 0.24979991
C 2.25565910 2.49976921 0.60253978
H 1.95625925 -1.31004953 1.39604950
H 1.50792944 -0.07879997 -0.50114983
H 3.15818882 -0.73486972 -0.39801985
H 4.88091850 1.18568957 -1.01912963
H 5.07317781 3.50615883 0.35736987
H 4.40097809 3.78695846 -1.27415955
H 1.24738955 2.60410905 0.19165993
H 2.20373917 2.43210888 1.69335938
15
Properties=species:S:1:pos:R:3 REF_energy=-0.05605665668690163
C 0.99999964 0.00000000 0.00000000
C 2.19015908 0.00000000 0.00000000
C 3.59615874 0.00000000 0.00000000
C 4.34597874 -1.10460961 -0.07331997
C 5.80320787 -0.78239971 -0.05570998
C 5.81929779 0.72312975 -0.32011986
C 4.43658829 1.23511946 0.08093997
H -0.06489997 -0.00190000 -0.00017000
H 3.96245837 -2.11417913 -0.12311995
H 6.23600769 -1.02558959 0.92072964
H 6.35159779 -1.32361948 -0.83270967
H 5.98537779 0.90838963 -1.38916957
H 6.62195778 1.23042953 0.22417991
H 4.09709835 2.02063918 -0.60162979
H 4.44024849 1.62939930 1.10339952
13
Properties=species:S:1:pos:R:3 REF_energy=-0.04121044580920308
C 1.09608948 0.00142000 -0.12723996
N 2.51593900 0.02006999 0.11672995
N 3.21637869 -1.15408945 0.27963990
C 4.44508839 -0.80648971 0.48340982
C 4.67882824 0.66911972 0.47530985
C 3.29276872 1.17232955 0.21627992
O 2.95280886 2.33886909 0.11994995
H 0.71346974 1.01832962 -0.24686991
H 0.59902972 -0.47691983 0.72101974
H 0.90154964 -0.57081980 -1.03832960
H 5.26920795 -1.51304936 0.65159976
H 5.04942799 0.99798965 1.44729948
H 5.36081791 0.93913966 -0.33230987
15
Properties=species:S:1:pos:R:3 REF_energy=-0.056777598756710734
C 0.88936967 0.06465998 0.06044998
C 2.39949918 -0.03216999 0.00644000
C 3.18759894 0.93845963 0.89447969
O 4.01435852 -0.14554994 1.39119947
C 3.05612874 -1.11743951 0.88283962
C 3.73840857 -2.18004918 0.18113995
C 4.29944801 -3.06846881 -0.40046984
H 0.43183985 -0.78161967 -0.46240982
H 0.54503983 0.98400968 -0.42373985
H 0.51824981 0.06551997 1.09054959
H 2.75809908 -0.02229999 -1.03161955
H 2.63362908 1.41375947 1.71047926
H 3.77558851 1.68851948 0.35888988
H 2.42808914 -1.48072946 1.70591927
H 4.80369854 -3.85527849 -0.91245967
13
Properties=species:S:1:pos:R:3 REF_energy=-0.044679217767380486
C 0.99999964 0.00000000 0.00000000
C 2.19015908 0.00000000 0.00000000
C 3.63415861 0.00000000 0.00000000
C 4.20418835 -1.19230950 -0.75600970
C 4.51006842 -0.53923976 -2.06362939
N 4.47313833 0.75207973 -2.06603909
N 4.16962862 1.11086953 -0.79178971
H -0.06585998 0.00534000 -0.00512000
H 4.01801872 0.03492999 1.02454960
H 3.51006866 -2.02479935 -0.89846969
H 5.14476776 -1.55578935 -0.33056989
H 4.77319813 -1.14156961 -2.94397879
H 3.58555865 1.94663930 -0.74616975
15
Properties=species:S:1:pos:R:3 REF_energy=-0.05494416250720979
C 1.11299968 -0.40198985 0.36722985
C 2.41567922 0.19257993 -0.15365994
O 2.95368886 -0.72247970 -1.11323965
C 2.20102906 1.54373944 -0.78442973
C 2.09535909 1.79464936 -2.10022926
C 2.12879920 2.70452905 0.14109994
O 2.26282907 2.59065914 1.35314953
H 0.65403974 0.22939992 1.13451958
H 1.29376948 -1.39322948 0.79829973
H 0.39009985 -0.54397976 -0.44502982
H 3.14283895 0.25567991 0.66368973
H 3.85508847 -0.41582984 -1.31121945
H 2.13519907 0.98357964 -2.82329893
H 1.94860923 2.79305911 -2.50010896
H 1.95331931 3.68744874 -0.32802987
17
Properties=species:S:1:pos:R:3 REF_energy=-0.06623650882653598
C 1.01826966 -0.16550994 0.09177997
C 2.53527927 -0.07214998 -0.06544998
N 2.96295905 -0.87041968 -1.22197950
C 2.97831893 1.39414954 -0.21516992
C 4.49610806 1.55940950 -0.28454989
O 5.01838827 0.99446958 -1.47993946
H 0.68581975 0.39608985 0.97169960
H 0.69971979 -1.20575953 0.22341992
H 0.49679983 0.24012990 -0.78269970
H 3.00524902 -0.49353981 0.83086967
H 2.45147920 -0.55855978 -2.05175924
H 2.67275906 -1.84058928 -1.08247960
H 2.60584903 1.97031927 0.64049977
H 2.52759886 1.82274926 -1.11955965
H 4.98613787 1.08204961 0.57036978
H 4.75930834 2.62162900 -0.27662992
H 4.58589792 0.11565995 -1.56518936
14
Properties=species:S:1:pos:R:3 REF_energy=-0.046634230845316926
C 0.99753958 0.02409999 -0.11757996
C 2.49943900 -0.03055999 0.08864997
C 3.14285874 -1.23980963 -0.55306983
C 4.04115868 -0.87592971 -1.47125947
N 4.09350872 0.47702983 -1.55165935
C 3.21072888 1.08610952 -0.67579979
O 3.04187894 2.28808928 -0.55399978
H 0.58256978 0.94080967 0.31598991
H 0.50474977 -0.83058965 0.35818988
H 0.73296970 0.01970999 -1.18159950
H 2.76729894 0.02643999 1.14815962
H 2.90705895 -2.25979900 -0.28570989
H 4.66276836 -1.50670946 -2.09097910
H 4.68536806 1.00995958 -2.17396903
15
Properties=species:S:1:pos:R:3 REF_energy=-0.05587621452448632
N 2.76636887 -1.09806955 -0.47619981
C 2.12737918 0.04339998 0.16805995
C 3.12276888 1.17144954 0.25980991
O 4.26854801 0.89533961 1.08865964
C 3.39777875 2.03765917 -0.93918961
C 2.66176915 2.60370922 0.24432991
H 2.22956920 -1.94044924 -0.28653991
H 3.68398881 -1.22950959 -0.04728998
H 1.80405927 -0.23309991 1.17755961
H 1.23934960 0.33432987 -0.40202984
H 4.03815842 0.95957965 2.03027940
H 2.84109879 1.84019923 -1.84761930
H 4.42131853 2.35102916 -1.10772955
H 3.18757868 3.32082868 0.86345965
H 1.60485935 2.80978894 0.12559995
15
Properties=species:S:1:pos:R:3 REF_energy=-0.05743801033588891
C 1.14493954 -0.24972990 -0.02264999
C 2.65894890 -0.18679993 -0.08052997
O 3.05738878 1.17583954 0.12840995
C 4.38995838 1.41783953 0.09968996
N 5.28424788 0.51225978 -0.10775996
N 6.56245756 1.06422961 -0.07950997
C 7.45286703 0.15966994 -0.31156987
H 0.79106975 -1.27438962 -0.16709994
H 0.70291978 0.38894984 -0.79477972
H 0.77976972 0.11820996 0.94207966
H 3.00478888 -0.52814978 -1.06247962
H 3.08476877 -0.82027966 0.70539975
H 4.59350824 2.48634911 0.27522987
H 8.51948643 0.43130982 -0.32422987
H 7.20250702 -0.89760965 -0.50371981
13
Properties=species:S:1:pos:R:3 REF_energy=-0.04942803093041115
C 1.66213930 -0.38980985 -1.24249959
C 2.14119935 0.25733992 -0.16966994
C 3.23012877 1.30038953 -0.14830993
O 3.72457838 1.59230947 -1.47867954
C 3.54582882 2.95439887 -1.52772939
C 2.99280906 3.44437885 -0.43800986
O 2.71684885 2.48748922 0.50800985
H 0.86877966 -1.12360954 -1.14139950
H 2.04391909 -0.19877993 -2.24118900
H 1.71655941 0.02715999 0.80449969
H 4.07277870 0.92700964 0.44755983
H 3.85647869 3.44859862 -2.42922902
H 2.72176886 4.45584822 -0.19400991
14
Properties=species:S:1:pos:R:3 REF_energy=-0.04130159188770777
C 0.98258960 0.03190999 0.02099999
N 2.44923902 -0.00792000 0.05375998
C 3.09162879 0.99392962 0.96454960
C 4.25520849 0.03589999 1.28782952
S 3.15663886 -1.29613948 0.90470964
O 2.32960892 -1.65408933 2.03311920
O 3.72029877 -2.23786926 -0.02895999
H 0.60145974 -0.81716967 -0.55334979
H 0.66051972 0.94904965 -0.48160982
H 0.54389977 0.02181999 1.02260959
H 2.47335911 1.25724947 1.83134925
H 3.38059878 1.91150928 0.44465983
H 5.10607815 0.09059997 0.60286981
H 4.60150814 0.04775998 2.32360911
17
Properties=species:S:1:pos:R:3 REF_energy=-0.06843837078372772
C 2.50432897 -0.30597988 -1.70405936
C 2.78245878 0.06947997 -0.25543991
N 3.33548880 1.42669952 -0.12027996
C 2.33531904 2.49285913 -0.06972997
C 4.69978857 1.66608930 -0.08906997
N 5.07493830 2.93284869 0.23590991
S 5.93004751 0.58541977 -0.41731986
H 2.10687923 -1.32415950 -1.76015925
H 3.41232872 -0.26049989 -2.31268930
H 1.76992929 0.36830986 -2.15546918
H 3.46615863 -0.66074973 0.18807994
H 1.85641921 0.01888999 0.32934991
H 1.87556934 2.48540926 0.92275965
H 1.56636941 2.30907917 -0.82537973
H 2.76171899 3.47899866 -0.26470992
H 4.50554848 3.46239877 0.87876970
H 6.07379770 3.07672882 0.33352989
9
Properties=species:S:1:pos:R:3 REF_energy=-0.027962924033595238
C 0.95470965 -0.04296998 0.00000000
C 2.29142904 -0.02062999 0.00000000
C 3.01317883 1.20192945 0.00000000
C 3.62385869 2.23600936 0.00000000
C 4.39948845 3.55837870 0.00000000
N 4.98637819 4.55921793 0.00000000
H 0.41783985 -0.98633963 0.00000000
H 0.36370987 0.86806971 0.00000000
H 2.85336900 -0.95046967 0.00000000
17
Properties=species:S:1:pos:R:3 REF_energy=-0.0660342342957363
C 4.39064837 -0.09666996 -2.09778929
O 4.45482826 -0.61183977 -0.77324975
C 4.27847862 0.39925984 0.20945993
C 5.46062803 1.36003947 0.30749989
C 6.80472755 0.76124972 0.65577972
N 5.24741793 2.62167883 0.05752998
N 6.32487774 3.43322873 0.12946995
H 4.40917826 -0.94083965 -2.79285884
H 5.25778818 0.53746980 -2.30569911
H 3.46426868 0.46422982 -2.25601912
H 4.17817831 -0.09750997 1.18037951
H 3.34895873 0.95063967 0.02706999
H 6.68241787 -0.26751989 1.00559962
H 7.28767729 1.33829951 1.44882941
H 7.43851709 0.75553972 -0.23566991
H 6.01798773 4.40852833 0.08414997
H 6.92796707 3.31142879 -0.68786973
11
Properties=species:S:1:pos:R:3 REF_energy=-0.044388416063427805
C 0.99999964 0.00000000 0.00000000
C 2.44399905 0.00000000 0.00000000
C 3.63415861 0.00000000 0.00000000
C 5.04015779 0.00000000 0.00000000
C 5.74191809 1.13786948 0.00000000
H 0.60598981 1.02087963 0.01167999
H 0.60591978 -0.52051979 0.87824970
H 0.60591978 -0.50028980 -0.88992965
H 5.55446815 -0.95633966 0.00000000
H 5.25560808 2.10879922 0.00000000
H 6.82681704 1.11896956 0.00000000
15
Properties=species:S:1:pos:R:3 REF_energy=-0.04991998687301846
C 0.96836966 0.08534997 -0.14546995
C 2.44253922 -0.11930995 0.01603999
C 3.08237886 -1.30008948 -0.01280999
N 2.56650901 -2.55670905 -0.21945991
C 3.21724892 1.12932968 0.26653990
N 4.40293837 1.23362947 -0.39243987
O 2.78098893 2.04485917 0.95120960
H 0.77104974 0.84347969 -0.91124970
H 0.52312982 0.42209983 0.79654968
H 0.44741982 -0.82555968 -0.45360982
H 4.15920830 -1.34397948 0.15136994
H 1.56211936 -2.63099909 -0.07548998
H 3.07697892 -3.29611874 0.26046991
H 4.68739843 0.57687980 -1.10487962
H 4.89646816 2.11281919 -0.31770989
17
Properties=species:S:1:pos:R:3 REF_energy=-0.06932675908356267
C 0.79084969 0.07533997 0.19291992
C 2.12950921 0.09946996 0.23030992
C 3.01561904 1.31033945 0.11312996
C 2.35823894 2.67921901 0.09495997
C 3.52451873 3.58585858 0.42357984
O 4.36811876 2.85739899 1.32519948
C 3.98449850 1.47246945 1.28204942
H 0.25399992 -0.86540967 0.27927989
H 0.19232993 0.97207963 0.07227997
H 2.64994907 -0.85192972 0.33881989
H 3.60385871 1.20308959 -0.80888969
H 1.60094941 2.76358891 0.88420969
H 1.88902926 2.92965889 -0.86090964
H 4.11145878 3.81875849 -0.47143984
H 3.21028876 4.52417850 0.88907969
H 4.88127804 0.85568970 1.16634953
H 3.51904869 1.22777963 2.24372911
18
Properties=species:S:1:pos:R:3 REF_energy=-0.07233004905093643
C 2.68890905 -1.06180954 0.92111963
C 3.17576885 -0.28568989 -0.29192990
C 3.20412874 1.19019949 -0.02146999
C 4.31642866 1.94152927 -0.07294997
C 4.38255835 3.38016868 0.17991993
C 4.47860861 3.86862850 1.60167933
N 5.63671827 3.89681864 0.71727973
H 2.67393899 -2.13495922 0.70284975
H 1.67355931 -0.76159972 1.20399952
H 3.34444880 -0.90131962 1.78456926
H 2.50660896 -0.47552982 -1.13805950
H 4.16761827 -0.65204978 -0.57925975
H 2.25471902 1.66208935 0.22375992
H 5.26033831 1.45960939 -0.32496989
H 3.88068843 4.00799847 -0.54846984
H 4.51426840 3.14320874 2.40501928
H 4.03207827 4.82142830 1.85245931
H 5.81024790 4.84129810 0.37008986
13
Properties=species:S:1:pos:R:3 REF_energy=-0.047451792652371094
C 1.02775967 -1.69099939 0.04100998
C 1.94388926 -0.48895982 0.16155992
O 1.13555956 0.68533969 0.22954991
C 1.90899932 1.88536930 0.37373984
C 2.56040907 2.29844904 -0.88093966
N 3.09710884 2.62381887 -1.85820925
H 1.60561943 -2.61748886 -0.01928999
H 0.39817986 -1.60807943 -0.85111964
H 0.35400987 -1.75020933 0.90219963
H 2.60612893 -0.44293985 -0.70924973
H 2.54952908 -0.57443982 1.07037961
H 2.64015889 1.76285934 1.18073964
H 1.21305954 2.67030907 0.68812972
20
Properties=species:S:1:pos:R:3 REF_energy=-0.07717234433463527
C 1.01607966 -0.22735992 -0.07683997
C 2.54990911 -0.23332991 0.03401999
C 2.96295905 -1.08075964 1.24561954
N 3.10755897 -0.85827971 -1.17795956
C 3.05612874 1.22648954 0.15723994
C 4.57399797 1.39341950 0.25868991
O 5.22472811 0.92698967 -0.91407967
H 0.67886978 0.34856987 -0.94649965
H 0.56101978 0.22097993 0.81384969
H 0.61614978 -1.24334955 -0.17580993
H 2.61923909 -0.62202972 2.17960906
H 4.04961872 -1.20117962 1.31233954
H 2.53077912 -2.08735919 1.19406950
H 2.73403907 -0.38268986 -2.00406933
H 2.76881909 -1.82021928 -1.25009954
H 2.59908891 1.69432938 1.03857958
H 2.70909905 1.79384935 -0.71735972
H 4.98521805 0.86471969 1.12332952
H 4.82197809 2.45368910 0.37543988
H 4.78363800 0.07898997 -1.14412963
22
Properties=species:S:1:pos:R:3 REF_energy=-0.08864074692592472
C 0.96438962 -0.10073996 -0.00087000
C 2.49515891 0.01305000 -0.04068999
C 3.01352882 -0.81670970 -1.22708952
C 3.01746893 1.48873937 -0.03453999
C 2.60727906 2.27963901 -1.28700960
C 2.53166914 2.24617910 1.21545947
N 4.49009848 1.47000957 0.01030000
H 0.54746974 0.37358987 0.89176965
H 0.65990978 -1.15313959 0.02790999
H 0.49984980 0.35082987 -0.88243961
H 2.86810899 -0.47618982 0.87119967
H 2.62190914 -0.44898984 -2.18055916
H 2.70059896 -1.86214936 -1.12623954
H 4.10636854 -0.81256968 -1.27874947
H 2.99311876 1.82496929 -2.20561934
H 2.99184895 3.30658865 -1.25101948
H 1.51857936 2.35100913 -1.37846959
H 2.76786900 1.69592941 2.13356924
H 1.44990945 2.41434908 1.19028962
H 3.00130868 3.23459888 1.29248953
H 4.80394840 1.00649965 0.86224967
H 4.85106802 2.42225909 0.05550998
19
Properties=species:S:1:pos:R:3 REF_energy=-0.0747238046282106
N 0.99435967 0.03530999 0.15793994
C 2.45455909 0.01195000 0.01880999
C 2.92514896 -1.33068943 -0.55309975
C 2.61000919 -1.47066951 -2.04211926
N 3.16847873 -0.36248985 -2.82407880
C 2.61827898 0.91336966 -2.35427928
C 2.93385887 1.15901959 -0.87787968
H 0.70294970 0.91420966 0.58493978
H 0.69694972 -0.70385975 0.79514968
H 2.88161898 0.14135994 1.02009964
H 2.47796917 -2.16522908 0.00086000
H 4.01067829 -1.41327953 -0.40842983
H 3.03730893 -2.40839911 -2.41392899
H 1.52797949 -1.53735936 -2.20741916
H 4.18182850 -0.35138986 -2.71257901
H 3.05219889 1.72128928 -2.95406890
H 1.53678954 0.94315964 -2.53208899
H 4.01958847 1.26904953 -0.75909972
H 2.49228907 2.11082911 -0.55855978
15
Properties=species:S:1:pos:R:3 REF_energy=-0.05778612417926343
C 2.70132899 -0.80218971 -0.98027962
N 2.51883912 -0.00366000 0.22676991
C 3.00477886 1.37802947 0.06442998
C 2.52318907 2.21509910 1.24458945
C 4.53185844 1.44768941 0.03239999
O 5.28450823 0.51183981 0.29212990
H 2.32645917 -1.81452942 -0.80254966
H 3.75370860 -0.88869965 -1.26994956
H 2.13535905 -0.38551986 -1.82107925
H 3.05581880 -0.44237983 0.97879964
H 2.62476897 1.81383932 -0.86574972
H 2.85366893 1.79052937 2.19981909
H 1.43007946 2.28084898 1.26062953
H 2.92212892 3.23546886 1.19046950
H 4.94496822 2.43536901 -0.22858992
13
Properties=species:S:1:pos:R:3 REF_energy=-0.05037957156444006
O 3.04505897 -0.94727963 -0.57150978
C 2.36694908 0.10123996 0.10243996
C 3.24893880 1.30343950 0.11074996
C 3.28970885 2.23153925 -1.07558966
C 2.66079903 2.68683887 0.21344991
H 2.44377899 -1.71026933 -0.57816976
H 2.15591931 -0.21897991 1.12785959
H 1.41856956 0.29212990 -0.41037983
H 4.18196869 1.10916960 0.62754977
H 2.64071918 2.02003932 -1.91775918
H 4.25040865 2.64943886 -1.35263956
H 3.19518876 3.42092848 0.80527973
H 1.58282948 2.79744887 0.23777992
19
Properties=species:S:1:pos:R:3 REF_energy=-0.07730101159880687
C 0.84815967 -0.17387994 0.04068999
C 2.37642908 -0.13431995 -0.07327997
C 2.82170892 -1.07950962 -1.19433951
C 2.93982911 1.28851950 -0.30196989
O 2.49244905 1.81076944 -1.54924953
C 2.61180902 2.23894906 0.82445973
C 2.02424932 3.44009876 0.72846973
H 0.49359980 0.44329983 0.87270969
H 0.50398982 -1.19759953 0.22709991
H 0.36189985 0.17602994 -0.87606966
H 2.78924918 -0.51897979 0.86861962
H 2.40413904 -0.78329968 -2.16292906
H 2.49465919 -2.10488915 -0.98884964
H 3.91336846 -1.09083962 -1.28333950
H 4.03308868 1.22385943 -0.36492985
H 1.53449941 1.94859922 -1.47440946
H 2.91026902 1.89857924 1.81480932
H 1.72636938 3.86557865 -0.22415991
H 1.84882927 4.04191875 1.61556947
17
Properties=species:S:1:pos:R:3 REF_energy=-0.07102609512762015
C 0.86114967 -0.29255989 -0.03102999
C 2.38021898 -0.12641995 0.05359998
N 3.02737880 -1.14220965 -0.78624970
C 2.84410882 1.28004944 -0.38336986
C 2.34579897 2.37792921 0.51783979
C 1.58529937 3.40101862 0.10795996
H 0.34946987 0.39520988 0.64958972
H 0.56268984 -1.30808949 0.25147992
H 0.49350983 -0.10228996 -1.04505968
H 2.69439912 -0.30128989 1.09023964
H 2.72886896 -1.02683961 -1.75406933
H 2.70992899 -2.06869936 -0.50407982
H 2.53719926 1.46694946 -1.42060947
H 3.94097853 1.31817949 -0.37236986
H 2.64690900 2.32805920 1.56241941
H 1.26887953 3.49984884 -0.92582965
H 1.26481950 4.16918850 0.80551970
14
Properties=species:S:1:pos:R:3 REF_energy=-0.056442791390510005
C 2.94522882 -1.07509959 -0.39615986
N 2.31520915 0.13268995 0.12093996
C 3.24488878 1.26334953 0.17567994
C 3.39838886 2.14835930 -1.02807963
C 2.67811918 2.65478897 0.18785994
H 2.20904922 -1.88342929 -0.43804985
H 3.77056861 -1.39929950 0.24573991
H 3.32455873 -0.91865963 -1.41094947
H 1.93399930 -0.05907998 1.04754961
H 4.13214827 1.10499954 0.78614974
H 2.80785894 1.92549920 -1.90915930
H 4.38273811 2.54686904 -1.24057961
H 3.17393899 3.39903855 0.79892975
H 1.60317934 2.77634883 0.12175995
13
Properties=species:S:1:pos:R:3 REF_energy=-0.04072496521230873
O 1.05355954 0.00587000 0.33380988
S 2.49907899 -0.00038000 0.21088992
O 3.35806894 -0.00572000 1.38063943
C 2.97724891 -1.35273945 -0.86423969
C 3.44453883 -0.67107970 -2.11338925
C 3.45046878 0.66809976 -2.11160922
C 2.98921871 1.35055959 -0.86064970
H 2.10800910 -1.98681927 -1.04877961
H 3.78457856 -1.91779935 -0.39170983
H 3.75906873 -1.25388956 -2.97121882
H 3.77015853 1.25037944 -2.96788907
H 3.80151868 1.90718937 -0.38662985
H 2.12561917 1.99280918 -1.04349959
14
Properties=species:S:1:pos:R:3 REF_energy=-0.051975876235900054
C 1.01686966 0.20756991 -0.05071998
C 2.52881908 0.02692999 -0.09076997
C 3.03175879 -0.54903978 -1.40978956
O 2.54497910 0.19584993 -2.52034903
C 3.19599867 1.36261952 0.13781995
O 3.86039853 1.61403942 1.13847959
H 0.70027977 0.57619977 0.93135965
H 0.50671983 -0.74311972 -0.23599991
H 0.67122972 0.93482965 -0.79341972
H 2.83537912 -0.63969976 0.72419971
H 2.71397901 -1.59088945 -1.52669942
H 4.12602854 -0.52788979 -1.45097947
H 1.68713939 -0.18441993 -2.78067899
H 3.03534865 2.12815905 -0.64239973
15
Properties=species:S:1:pos:R:3 REF_energy=-0.053746088534453174
C 0.91627967 0.00043000 0.12208995
C 2.43617916 0.00040000 -0.02654999
O 2.75861907 -0.68424976 -1.24507952
C 3.02738905 1.43281937 0.00000000
O 2.57021904 2.14116931 1.15145957
C 4.47134829 1.42220950 0.00013000
C 5.66147757 1.41346955 0.00023000
H 0.60422981 0.41902983 1.08246958
H 0.52675980 -1.02050960 0.04726999
H 0.44681984 0.57625979 -0.68190974
H 2.85753894 -0.59046978 0.79637975
H 2.38948894 -0.17073993 -1.98413920
H 2.67166901 1.98067927 -0.88026965
H 3.07152867 1.79765940 1.91144931
H 6.72723722 1.40351951 -0.00507000
14
Properties=species:S:1:pos:R:3 REF_energy=-0.05249010846371238
C 2.24115896 -0.41088986 -1.59168947
O 2.26525927 0.11381996 -0.27105990
C 3.14752889 1.20712960 -0.13264994
C 3.34630871 1.56226945 1.32504952
O 3.56343865 2.97877884 1.34281957
N 2.86994886 3.52519870 0.23368990
C 2.62341905 2.53907895 -0.56121981
H 1.54109943 -1.25048947 -1.61428940
H 3.23215890 -0.77718967 -1.87658942
H 1.89942920 0.34524989 -2.30422902
H 4.10432863 1.02403963 -0.63497978
H 4.21595860 1.05449963 1.75231934
H 2.47216916 1.32683957 1.94292927
H 2.12137914 2.66257906 -1.53020942
13
Properties=species:S:1:pos:R:3 REF_energy=-0.044930608549156315
C 0.86842972 0.10386997 -0.00457000
C 2.36615920 0.03912999 -0.00486000
C 2.94922876 -1.33157945 -0.01091000
O 2.25021911 -2.33962917 -0.01536999
C 3.13901877 1.13798952 0.00000000
C 4.54501867 1.13798952 0.00000000
C 5.73517752 1.13798952 0.00000000
H 0.50297982 1.13654959 -0.00001000
H 0.46263981 -0.39348984 0.88259971
H 0.46263981 -0.38562986 -0.89610970
H 4.04817867 -1.40322936 -0.01123000
H 2.66221905 2.11553931 0.00432000
H 6.80087757 1.14124966 0.00001000
17
Properties=species:S:1:pos:R:3 REF_energy=-0.06597545001748073
C 1.91301930 -0.23678991 1.42628944
C 2.29686904 0.22370991 0.02727999
N 2.89589882 1.57597947 0.06394997
C 2.08056927 2.70615888 0.04000998
C 0.74816972 2.81094909 -0.02748999
C 4.28070831 1.62923932 0.17899993
N 5.09462833 2.62600899 0.20086992
H 1.51605952 -1.25572956 1.39312947
H 1.14647961 0.41065985 1.86213934
H 2.77817917 -0.22813992 2.09588909
H 1.42206943 0.19925992 -0.63388973
H 3.00318885 -0.49537984 -0.40802982
H 2.63694906 3.63773870 0.09321997
H 0.09029996 1.95225918 -0.07523997
H 0.27808991 3.78955865 -0.03021999
H 4.73333836 0.62536979 0.26404992
H 4.58959818 3.50571871 0.10680996
14
Properties=species:S:1:pos:R:3 REF_energy=-0.048347107541733436
C 0.89334971 -0.11059996 0.03188999
C 2.40969920 -0.01621999 -0.02310999
C 2.87038898 1.40777946 -0.03399999
N 3.05969882 2.13063931 1.05055964
C 3.48200870 3.39678884 0.69837976
C 3.61166859 3.62663865 -0.65336972
S 3.19187903 2.21115923 -1.52234948
H 0.57927978 -1.15890956 0.06143998
H 0.43314981 0.35683987 -0.84569973
H 0.49701983 0.38800985 0.92355967
H 2.78123903 -0.55356979 -0.90307963
H 2.83409905 -0.51881981 0.85378969
H 3.68385863 4.12236834 1.47677946
H 3.92357850 4.53026819 -1.15616965
13
Properties=species:S:1:pos:R:3 REF_energy=-0.03940500315961515
O 1.61944938 -0.29226989 -1.02472961
C 2.63789892 -0.04702998 -0.06210998
C 2.90947890 1.40731943 -0.04134998
C 2.16891909 2.52716899 -0.36307988
C 2.99963880 3.64513850 -0.11297996
C 4.19126844 3.13970900 0.34856987
O 4.14606810 1.78363931 0.40086985
H 1.51855946 -1.25678945 -1.07550967
H 3.53270864 -0.60903978 -0.34590986
H 2.28862906 -0.38715985 0.91693962
H 1.15512967 2.52244925 -0.73860973
H 2.76004910 4.68951845 -0.25383991
H 5.12233829 3.58805871 0.66618973
19
Properties=species:S:1:pos:R:3 REF_energy=-0.07439035790484838
N 2.25041914 -0.42619982 -1.44212937
C 2.37465930 0.02082999 -0.05785998
C 3.19838881 1.29878950 0.01747999
C 2.52606916 2.59507895 -0.52287978
C 3.20327878 3.34850883 0.64285976
C 3.20746875 2.00387931 1.40311956
N 4.50296831 1.82020938 2.05017924
H 1.69872940 -1.28302956 -1.47091937
H 3.17027879 -0.67132974 -1.80655932
H 2.85277891 -0.76787972 0.53317982
H 1.37246943 0.17902993 0.35539988
H 4.20162821 1.15547955 -0.41376984
H 1.43086958 2.59869909 -0.46745980
H 2.83147907 2.90512896 -1.52569938
H 4.18532848 3.75714874 0.37359986
H 2.60479903 4.14466858 1.09442961
H 2.33332920 1.83242941 2.03822923
H 5.31032801 2.03594923 1.46711946
H 4.65633821 0.87963963 2.40981913
17
Properties=species:S:1:pos:R:3 REF_energy=-0.06283301361630378
C 0.83458966 0.45363981 -0.84786969
N 2.25451922 0.29014990 -1.06125963
C 3.19270873 1.14207959 -0.52765983
N 3.01951885 2.41334915 -0.38763985
C 4.53579807 0.52952981 -0.08325997
C 4.38269806 -0.13190995 1.27548945
O 4.92936802 -0.46263981 -1.02849960
H 0.29642990 -0.40494984 -1.26093960
H 0.46284983 1.35378957 -1.34588957
H 0.60918981 0.51643980 0.22136992
H 2.55750895 -0.68428975 -1.03878963
H 2.10637927 2.66882896 -0.76826972
H 5.30413771 1.30905950 -0.04402998
H 3.70181870 -0.98904961 1.22265947
H 3.99461865 0.56810975 2.02131915
H 5.34679794 -0.51850981 1.62197948
H 5.06034803 0.01657999 -1.86713934
17
Properties=species:S:1:pos:R:3 REF_energy=-0.06468446804129901
C -1.25466955 -0.00106000 0.93566966
C -0.59934974 -1.02233958 -0.02553999
C 0.91007966 -1.20954955 0.25420991
N 1.68560946 -0.00092000 -0.10947996
C 0.91029966 1.20796955 0.25760990
C -0.59906983 1.02178967 -0.02231999
N -0.84988964 0.00118000 -1.12303948
H -0.91454965 -0.00285000 1.97461927
H -2.35217905 -0.00117000 0.92447966
H -1.14142954 -1.96575928 -0.13962995
H 1.07384956 -1.45311952 1.31024945
H 1.29357946 -2.05167913 -0.33218989
H 1.70755935 0.00081000 -1.13429952
H 1.29451954 2.05143929 -0.32684988
H 1.07440960 1.44844949 1.31408954
H -1.14062953 1.96585929 -0.13427994
H -1.81590939 0.00205000 -1.45218945
21
Properties=species:S:1:pos:R:3 REF_energy=-0.08751402317876944
C 3.00875878 -0.81656969 -1.23537958
C 2.50760913 0.04164998 -0.07763997
C 3.02485895 1.50661945 -0.06152998
C 2.50578904 2.26586914 -1.29957950
C 2.44672918 2.20374918 1.18888950
C 4.54293823 1.51656938 0.07533997
C 5.43753767 2.08132911 -0.74810970
H 2.59534883 -1.82783937 -1.15256965
H 4.09958839 -0.90603966 -1.23032951
H 2.69676900 -0.41377982 -2.20354915
H 2.78715897 -0.45848981 0.85901970
H 1.41035938 0.04307998 -0.10458996
H 2.91343904 1.86353934 -2.23321915
H 2.77083898 3.32931876 -1.25613964
H 1.41297948 2.20667934 -1.36577952
H 2.75154901 1.69490933 2.11153913
H 1.35051954 2.21297932 1.16567957
H 2.78543878 3.24471879 1.25871956
H 4.93493843 0.99725962 0.95106965
H 5.15264845 2.61917901 -1.64473927
H 6.49988794 2.01415920 -0.53392982
17
Properties=species:S:1:pos:R:3 REF_energy=-0.06561383667550191
C 2.11364913 -0.57758981 -1.36825943
C 2.46487904 -0.03264999 0.00812000
C 3.23332882 1.28249955 -0.08980996
O 4.49333858 1.06587958 -0.77861971
C 2.41772914 2.51677895 -0.53949982
O 2.87872910 3.27748895 0.60702980
C 3.33667874 2.05654931 1.24500954
H 1.54989946 -1.51103950 -1.27291954